ITEM: TIMESTEP
0
ITEM: NUMBER OF ATOMS
11520
ITEM: BOX BOUNDS xy xz yz pp pp pp
0.0000000000000000e+00 5.0345592870000004e+01 0.0000000000000000e+00
0.0000000000000000e+00 5.0254959509999999e+01 0.0000000000000000e+00
0.0000000000000000e+00 4.6155249209999994e+01 0.0000000000000000e+00
ITEM: ATOMS id type xs ys zs
1 2 0.40789 0.000432307 0.914145
41 2 0.321595 0.0758681 0.222098
42 1 0.327222 0.0726657 0.202598
43 1 0.310222 0.0611707 0.226584
61 2 0.163219 0.396074 0.849363
62 1 0.179027 0.399204 0.860372
63 1 0.151786 0.386571 0.862306
65 2 0.253287 0.261471 0.877073
66 1 0.243227 0.261495 0.89467
67 1 0.242548 0.251713 0.863656
70 1 0.00762891 0.0431209 0.111802
71 1 0.000980006 0.0584906 0.139064
129 2 0.313907 0.1605 0.776597
130 1 0.297994 0.156942 0.787264
131 1 0.308977 0.174107 0.763118
137 2 0.169469 0.341064 0.366842
138 1 0.166528 0.324267 0.376079
139 1 0.188225 0.341636 0.363506
149 2 0.0316187 0.184217 0.0406495
150 1 0.0496845 0.179185 0.0372205
151 1 0.0261293 0.173348 0.0565931
165 2 0.422245 0.277106 0.584162
166 1 0.426108 0.288429 0.600296
167 1 0.427595 0.259748 0.590397
173 2 0.142873 0.240389 0.99765
174 1 0.160401 0.234419 0.00237075
175 1 0.13501 0.244662 0.0159504
185 2 0.127859 0.395172 0.215848
186 1 0.138409 0.389128 0.231797
187 1 0.135955 0.387277 0.199168
193 2 0.0411429 0.170684 0.504496
194 1 0.050512 0.175711 0.521692
195 1 0.0249264 0.1806 0.505302
205 2 0.0479129 0.124252 0.315049
206 1 0.0456495 0.105346 0.315543
207 1 0.0310414 0.131218 0.320871
209 2 0.264236 0.0561603 0.966811
210 1 0.26095 0.0375524 0.96941
211 1 0.282929 0.0573144 0.963238
221 2 0.238415 0.137231 0.710339
222 1 0.239398 0.124713 0.694745
223 1 0.220341 0.143142 0.710273
225 2 0.0184777 0.410437 0.990491
226 1 0.00625481 0.405642 0.00549429
227 1 0.0134829 0.399578 0.974348
229 2 0.364685 0.215555 0.583304
230 1 0.375179 0.205582 0.596762
231 1 0.346945 0.214284 0.590634
237 2 0.0976827 0.284336 0.931961
238 1 0.0946176 0.266301 0.926188
239 1 0.0804296 0.292339 0.931901
241 2 0.263938 0.192033 0.338182
242 1 0.260693 0.197524 0.357723
243 1 0.252476 0.203012 0.326742
245 2 0.045325 0.344343 0.013091
246 1 0.0612536 0.354635 0.0114721
247 1 0.050306 0.326922 0.00670418
269 2 0.00277209 0.332442 0.923953
271 1 0.00417552 0.350593 0.93005
273 2 0.0550699 0.0612175 0.388507
274 1 0.0556935 0.0452559 0.377211
275 1 0.0718952 0.0695507 0.385198
293 2 0.120282 0.422004 0.562474
294 1 0.129124 0.405198 0.56396
295 1 0.103729 0.417989 0.553256
341 2 0.122431 0.125065 0.889865
342 1 0.141301 0.123585 0.891819
343 1 0.116283 0.107053 0.889147
349 2 0.404901 0.0146848 0.271679
350 1 0.396599 0.0275641 0.283985
351 1 0.412497 0.0249387 0.256291
389 2 0.492636 0.468737 0.370914
390 1 0.490749 0.466914 0.350373
391 1 0.484572 0.453039 0.378696
393 2 0.451331 0.380234 0.265123
394 1 0.465462 0.382506 0.278775
395 1 0.44188 0.396755 0.265604
421 2 0.0734938 0.262979 0.238661
422 1 0.0778808 0.245304 0.232592
423 1 0.0784855 0.263577 0.258661
425 2 0.38574 0.262759 0.330647
426 1 0.395753 0.248471 0.33894
427 1 0.38239 0.274542 0.346526
429 2 0.0217927 0.277598 0.225475
430 1 0.0116371 0.270022 0.240946
431 1 0.0392836 0.270517 0.228056
445 2 0.0695523 0.415768 0.540465
446 1 0.0662949 0.434524 0.539823
447 1 0.052917 0.408184 0.546178
449 2 0.273654 0.162875 0.640851
450 1 0.28349 0.147594 0.647026
451 1 0.256313 0.156151 0.636527
493 2 0.0139575 0.384973 0.937769
494 1 0.004047 0.397051 0.925924
495 1 0.0312821 0.384648 0.929233
501 2 0.497943 0.292872 0.683298
503 1 0.487443 0.289929 0.700288
509 2 0.00408187 0.352233 0.678954
517 2 0.153938 0.0309358 0.636556
518 1 0.150022 0.0144659 0.646057
519 1 0.172929 0.0318001 0.636295
521 2 0.377632 0.461499 0.980313
522 1 0.374535 0.449292 0.99587
523 1 0.367919 0.454242 0.964331
545 2 0.442111 0.0408388 0.328475
546 1 0.432812 0.0528827 0.316015
547 1 0.456913 0.0348989 0.31718
553 2 0.252235 0.0258691 0.354139
554 1 0.267851 0.0155745 0.357922
555 1 0.247263 0.0211403 0.334796
561 2 0.0650955 0.432639 0.178949
562 1 0.0629319 0.415881 0.169378
563 1 0.0485877 0.435478 0.188762
573 2 0.395604 0.30184 0.667953
574 1 0.394098 0.312967 0.684705
575 1 0.380438 0.306264 0.65641
581 2 0.10411 0.0265798 0.159467
582 1 0.107098 0.00811659 0.163383
583 1 0.0855988 0.0276802 0.154888
593 2 0.0729504 0.3946 0.00161932
594 1 0.0739364 0.398135 0.0219694
595 1 0.0544196 0.395751 0.997152
605 2 0.238445 0.0165013 0.293972
606 1 0.239469 0.0321789 0.282248
607 1 0.220166 0.0154194 0.299555
649 2 0.32727 0.142894 0.944168
650 1 0.339781 0.156648 0.948596
651 1 0.310515 0.151848 0.943167
677 2 0.0708203 0.38167 0.818843
678 1 0.0790666 0.396901 0.827455
679 1 0.0783361 0.380685 0.799823
705 2 0.364449 0.13143 0.0658349
706 1 0.361597 0.114373 0.0745245
707 1 0.365459 0.127853 0.0454951
711 1 0.0102548 0.103362 0.522917
713 2 0.314519 0.325452 0.712463
714 1 0.311105 0.331738 0.731682
715 1 0.321108 0.307751 0.715108
721 2 0.216724 0.184733 0.0480467
722 1 0.231415 0.194316 0.0560734
723 1 0.20486 0.182211 0.0640182
735 1 0.0862436 0.499187 0.473202
757 2 0.386532 0.138069 0.167599
758 1 0.368493 0.133642 0.163162
759 1 0.396746 0.124021 0.159114
817 2 0.395628 0.349158 0.98377
818 1 0.410168 0.355215 0.995391
819 1 0.400079 0.33117 0.978979
837 2 0.389683 0.176386 0.620968
838 1 0.384449 0.16059 0.610883
839 1 0.378031 0.177206 0.637332
841 2 0.435778 0.118053 0.951275
842 1 0.446563 0.102456 0.949462
843 1 0.426687 0.115807 0.969324
853 2 0.458384 0.353463 0.124757
854 1 0.457574 0.336502 0.134153
855 1 0.449993 0.365434 0.138039
861 2 0.0522675 0.466772 0.539745
862 1 0.0625049 0.482822 0.53959
863 1 0.0446859 0.465804 0.520755
865 2 0.118525 0.415146 0.293996
866 1 0.130397 0.402186 0.286043
867 1 0.121395 0.414205 0.314471
885 2 0.155089 0.252611 0.87334
886 1 0.15702 0.26471 0.889218
887 1 0.171455 0.25403 0.862898
897 2 0.489666 0.313875 0.435745
898 1 0.470754 0.312043 0.436483
899 1 0.495062 0.314382 0.455623
925 2 0.257128 0.297281 0.597599
926 1 0.273462 0.305909 0.592658
927 1 0.243731 0.310317 0.593713
929 2 0.0149042 0.230988 0.435562
930 1 0.026314 0.238412 0.421075
931 1 0.0245323 0.216026 0.442937
937 2 0.484391 0.348401 0.742059
938 1 0.499867 0.346855 0.73013
939 1 0.488957 0.361641 0.756111
977 2 0.30973 0.289087 0.334476
978 1 0.299621 0.298769 0.320427
979 1 0.299903 0.290978 0.35211
985 2 0.125039 0.316309 0.965541
986 1 0.118884 0.333819 0.9609
987 1 0.115477 0.304861 0.95266
1009 2 0.34569 0.285957 0.632002
1010 1 0.343426 0.270861 0.644405
1011 1 0.35454 0.279046 0.615259
1047 1 0.00273387 0.27786 0.645256
1061 2 0.445068 0.26522 0.286822
1062 1 0.451985 0.277616 0.300643
1063 1 0.426191 0.266661 0.288729
1097 2 0.151988 0.332128 0.309134
1098 1 0.136098 0.321689 0.308429
1099 1 0.155666 0.33407 0.329371
1109 2 0.0227745 0.470148 0.242593
1110 1 0.0280687 0.470558 0.262506
1111 1 0.0346805 0.482181 0.233118
1122 1 0.000216973 0.427849 0.881908
1137 2 0.281956 0.439804 0.0246859
1138 1 0.277902 0.421861 0.019313
1139 1 0.282138 0.449362 0.00674879
1145 2 0.20436 0.259746 0.0631885
1146 1 0.193451 0.26321 0.0797495
1147 1 0.215682 0.274992 0.0617707
1157 2 0.0566657 0.184752 0.259915
1158 1 0.051036 0.199477 0.271549
1159 1 0.0650793 0.192753 0.243484
1173 2 0.066558 0.00010664 0.224988
1174 1 0.0733904 0.0164181 0.217299
1181 2 0.373638 0.0241581 0.844486
1182 1 0.377756 0.0418808 0.850614
1183 1 0.38773 0.0195238 0.831511
1185 2 0.16936 0.0469731 0.0837266
1186 1 0.174748 0.0429557 0.0643251
1187 1 0.17742 0.0638102 0.0878147
1234 1 0.180405 0.493087 0.198096
1285 2 0.433724 0.48826 0.521977
1286 1 0.422431 0.498238 0.534639
1287 1 0.433491 0.497974 0.50414
1293 2 0.328297 0.48447 0.873696
1294 1 0.332998 0.496158 0.858144
1295 1 0.317818 0.495221 0.88644
1297 2 0.378987 0.397928 0.769703
1298 1 0.366074 0.409767 0.7778
1299 1 0.374293 0.380795 0.777178
1301 2 0.390943 0.105578 0.728458
1302 1 0.387533 0.115734 0.711312
1303 1 0.398603 0.118066 0.741703
1341 2 0.426789 0.0475157 0.899105
1342 1 0.413193 0.0604927 0.902345
1343 1 0.418269 0.0308018 0.902647
1345 2 0.0453991 0.246934 0.387481
1346 1 0.0428089 0.230231 0.377923
1347 1 0.0639791 0.247378 0.391853
1357 2 0.00584003 0.178997 0.1955
1358 1 0.0206954 0.190153 0.191031
1365 2 0.0111971 0.198435 0.915443
1366 1 0.0043293 0.211988 0.927942
1377 2 0.194308 0.0246011 0.846113
1378 1 0.176069 0.0205711 0.849988
1379 1 0.199501 0.01191 0.831724
1381 2 0.308647 0.0876778 0.353439
1382 1 0.309948 0.105999 0.35893
1383 1 0.32585 0.0804661 0.357478
1421 2 0.0149165 0.268345 0.169142
1422 1 0.0276956 0.277783 0.157732
1423 1 0.0171704 0.27521 0.18833
1441 2 0.07097 0.334443 0.545645
1442 1 0.0669271 0.347975 0.531733
1443 1 0.0662016 0.34212 0.563898
1445 2 0.0810783 0.10072 0.22399
1446 1 0.0841705 0.0822738 0.220077
1447 1 0.0659579 0.100858 0.236562
1453 2 0.201652 0.463902 0.445097
1454 1 0.210815 0.480561 0.446193
1455 1 0.210157 0.454611 0.429551
1465 2 0.0850816 0.0841164 0.710044
1466 1 0.0687522 0.0831025 0.69948
1467 1 0.0965498 0.0716583 0.700578
1481 2 0.0983822 0.313219 0.156766
1482 1 0.101618 0.328455 0.144832
1483 1 0.115508 0.305284 0.159316
1501 2 0.460653 0.223245 0.200119
1502 1 0.452318 0.238113 0.20936
1503 1 0.478624 0.228816 0.197112
1530 1 0.345541 0.00820305 0.826254
1531 1 0.315639 0.00617019 0.823585
1553 2 0.381523 0.111652 0.274769
1554 1 0.364275 0.103992 0.277333
1555 1 0.39359 0.097683 0.279819
1557 2 0.200743 0.374537 0.245327
1558 1 0.213184 0.37342 0.229692
1559 1 0.211195 0.371658 0.262364
1589 2 0.095094 0.4412 0.229659
1590 1 0.110368 0.429858 0.2298
1591 1 0.0841964 0.434331 0.214399
1609 2 0.475166 0.0826578 0.949779
1610 1 0.477486 0.0909512 0.931281
1611 1 0.465991 0.0664206 0.945608
1633 2 0.106146 0.154481 0.521167
1634 1 0.0896006 0.157076 0.530986
1635 1 0.110844 0.171786 0.514183
1649 2 0.367208 0.472193 0.811247
1650 1 0.379806 0.478778 0.797468
1651 1 0.356039 0.487131 0.815386
1693 2 0.149796 0.37332 0.268387
1694 1 0.150618 0.35862 0.281543
1695 1 0.166664 0.37323 0.258817
1710 1 0.00418571 0.246011 0.469786
1721 2 0.132922 0.0225032 0.916164
1722 1 0.140959 0.00595016 0.921494
1723 1 0.114518 0.020282 0.920771
1737 2 0.292198 0.435554 0.769065
1738 1 0.292361 0.450702 0.756494
1739 1 0.27432 0.434631 0.776049
1741 2 0.491648 0.0158232 0.860491
1742 1 0.492021 0.0117321 0.880742
1743 1 0.477358 0.00533042 0.852967
1754 1 0.490864 0.252491 0.475625
1757 2 0.141823 0.460643 0.527154
1758 1 0.159999 0.464041 0.531986
1759 1 0.135176 0.450441 0.543095
1761 2 0.262996 0.147439 0.206141
1762 1 0.248665 0.152213 0.193543
1763 1 0.260946 0.128693 0.209052
1793 2 0.306817 0.140431 0.27595
1794 1 0.290157 0.149539 0.274727
1795 1 0.317316 0.147996 0.260748
1797 2 0.17463 0.180191 0.640556
1798 1 0.156934 0.176148 0.63438
1799 1 0.177504 0.198121 0.634299
1829 2 0.0135879 0.377848 0.729409
1830 1 0.0207309 0.393684 0.72092
1831 1 0.00855846 0.367061 0.713221
1849 2 0.161735 0.069551 0.707579
1850 1 0.147215 0.0573516 0.705907
1851 1 0.165357 0.0703296 0.72792
1873 2 0.382076 0.351239 0.131196
1874 1 0.370163 0.336867 0.127149
1875 1 0.392938 0.344843 0.146727
1881 2 0.0405855 0.322805 0.610982
1882 1 0.0512254 0.326515 0.627688
1883 1 0.0253006 0.31381 0.618478
1885 2 0.0514759 0.144886 0.417327
1886 1 0.0447037 0.12996 0.427881
1887 1 0.0491396 0.159683 0.430134
1909 2 0.33185 0.270167 0.722573
1910 1 0.343944 0.267262 0.738259
1911 1 0.31511 0.263932 0.729686
1925 2 0.486979 0.41462 0.0463918
1926 1 0.484398 0.410422 0.0664237
1941 2 0.275871 0.0970438 0.834035
1942 1 0.2661 0.098479 0.851757
1943 1 0.272104 0.0794724 0.827166
1969 2 0.00661819 0.139593 0.158469
1970 1 0.00731492 0.155199 0.170333
1971 1 0.0239607 0.131934 0.160112
1973 2 0.278386 0.418015 0.120031
1974 1 0.281659 0.430457 0.10474
1975 1 0.290473 0.42309 0.135056
1981 2 0.38761 0.0783248 0.447624
1982 1 0.397014 0.0907763 0.435746
1983 1 0.385543 0.0629301 0.435622
2002 1 0.000118967 0.00923732 0.36109
2017 2 0.388935 0.455419 0.622107
2018 1 0.373864 0.458412 0.634323
2019 1 0.399182 0.471398 0.62368
2065 2 0.367411 0.429213 0.0286627
2066 1 0.353773 0.417905 0.0362274
2067 1 0.365274 0.445629 0.0389185
2089 2 0.333978 0.263172 0.902469
2090 1 0.324591 0.272415 0.887503
2091 1 0.32047 0.253776 0.912876
2113 2 0.338206 0.390782 0.0604928
2114 1 0.348944 0.395501 0.0768182
2115 1 0.345385 0.374199 0.0539523
2117 2 0.495754 0.0582889 0.76955
2118 1 0.49758 0.0638004 0.749799
2119 1 0.485599 0.0721482 0.778477
2129 2 0.0915835 0.161747 0.979957
2130 1 0.103352 0.150563 0.96914
2131 1 0.0757993 0.16261 0.968434
2137 2 0.166065 0.141865 0.979324
2138 1 0.18029 0.129267 0.978238
2139 1 0.152027 0.133979 0.968283
2142 1 0.461504 0.495668 0.625618
2153 2 0.267386 0.0583504 0.79749
2154 1 0.283025 0.0562096 0.785929
2155 1 0.253401 0.0609711 0.783733
2173 2 0.217933 0.333451 0.577609
2174 1 0.212897 0.333971 0.597599
2175 1 0.206872 0.319961 0.569315
2177 2 0.145038 0.204311 0.725609
2178 1 0.146436 0.185711 0.729805
2179 1 0.129455 0.205786 0.713837
2185 2 0.00659474 0.379998 0.261104
2186 1 0.0109232 0.392856 0.246551
2187 1 0.00749488 0.363246 0.251284
2201 2 0.22654 0.31527 0.736253
2202 1 0.213809 0.303507 0.727695
2203 1 0.241288 0.315014 0.723167
2221 2 0.394557 0.121436 0.53193
2222 1 0.38073 0.123421 0.546
2223 1 0.396061 0.138625 0.523149
2233 2 0.0481452 0.197967 0.816602
2234 1 0.0297893 0.202221 0.819385
2235 1 0.0572529 0.207984 0.831178
2245 2 0.314911 0.0108019 0.0952373
2246 1 0.29781 0.0187861 0.0978031
2247 1 0.317725 0.0110181 0.0747283
2277 2 0.120749 0.246186 0.800479
2278 1 0.123906 0.227449 0.801893
2279 1 0.114462 0.251174 0.819283
2305 2 0.268348 0.37136 0.840064
2306 1 0.286027 0.378206 0.838437
2307 1 0.270315 0.352528 0.837818
2325 2 0.218839 0.211153 0.963863
2326 1 0.204745 0.203008 0.953133
2327 1 0.210426 0.217993 0.980905
2331 1 0.487969 0.047418 0.106318
2349 2 0.285678 0.246431 0.407796
2350 1 0.302493 0.24041 0.400675
2351 1 0.288588 0.249527 0.428011
2377 2 0.285678 0.487446 0.169341
2378 1 0.295264 0.49345 0.186016
2379 1 0.291353 0.469432 0.166683
2381 2 0.409889 0.339843 0.393557
2382 1 0.422951 0.339372 0.378497
2383 1 0.40589 0.358339 0.395905
2393 2 0.0850372 0.231564 0.919037
2394 1 0.0728816 0.228153 0.934545
2395 1 0.0976772 0.217374 0.920172
2433 2 0.283728 0.392174 0.626453
2434 1 0.28107 0.392257 0.605918
2435 1 0.301028 0.38463 0.629004
2437 2 0.0976331 0.308977 0.295486
2438 1 0.0907118 0.291238 0.295309
2439 1 0.0823109 0.32012 0.293599
2449 2 0.418347 0.425528 0.534795
2450 1 0.416255 0.407366 0.528978
2451 1 0.432355 0.42513 0.54881
2465 2 0.302867 0.00160493 0.517012
2467 1 0.305222 0.0173969 0.528319
2477 2 0.342112 0.0708451 0.741933
2478 1 0.337754 0.0881185 0.7346
2479 1 0.354457 0.0741994 0.757276
2501 2 0.185006 0.166737 0.539528
2502 1 0.182146 0.180641 0.525701
2503 1 0.189016 0.151393 0.528046
2513 2 0.160472 0.294718 0.404788
2514 1 0.141696 0.293776 0.401689
2515 1 0.162464 0.294219 0.425405
2529 2 0.45062 0.17605 0.926297
2530 1 0.445467 0.159401 0.934656
2531 1 0.434324 0.185658 0.924132
2533 2 0.427154 0.0289495 0.490176
2534 1 0.418742 0.0430557 0.500664
2535 1 0.439275 0.037766 0.477404
2541 2 0.243183 0.222374 0.0844217
2542 1 0.258761 0.233061 0.0819792
2543 1 0.228924 0.234933 0.0855092
2557 2 0.472902 0.408808 0.104252
2558 1 0.476527 0.418164 0.121879
2559 1 0.471999 0.390497 0.109878
2569 2 0.0371203 0.421404 0.701753
2570 1 0.0291801 0.437522 0.694891
2571 1 0.0513722 0.427187 0.71395
2573 2 0.280558 0.44054 0.535442
2574 1 0.297467 0.449168 0.534163
2575 1 0.275755 0.436983 0.515753
2597 2 0.439495 0.467845 0.17915
2598 1 0.429905 0.481987 0.170007
2599 1 0.426216 0.454885 0.18375
2617 2 0.414043 0.33532 0.264661
2618 1 0.40558 0.347394 0.251545
2619 1 0.432605 0.339012 0.262661
2647 1 0.491012 0.217192 0.623366
2657 2 0.274607 0.313389 0.0106949
2658 1 0.287113 0.30081 0.018208
2659 1 0.285324 0.327525 0.00317616
2665 2 0.0285195 0.202194 0.690835
2666 1 0.0472037 0.19989 0.693739
2667 1 0.0251123 0.194278 0.672342
2685 2 0.300155 0.257132 0.142257
2686 1 0.296172 0.240699 0.151798
2687 1 0.31915 0.257939 0.142037
2697 2 0.239308 0.461641 0.878339
2698 1 0.227795 0.446727 0.875389
2699 1 0.25413 0.458338 0.865857
2709 2 0.476755 0.188793 0.873383
2710 1 0.468046 0.188531 0.891816
2711 1 0.472612 0.205912 0.865493
2721 2 0.3513 0.353976 0.676477
2722 1 0.337974 0.341508 0.682349
2723 1 0.348033 0.356748 0.656271
2729 2 0.0260112 0.39333 0.105951
2730 1 0.0246417 0.412286 0.107311
2731 1 0.0110592 0.386803 0.116609
2733 2 0.47078 0.229324 0.443803
2734 1 0.47992 0.215375 0.453804
2735 1 0.454803 0.221168 0.436909
2745 2 0.185319 0.116889 0.510978
2746 1 0.172396 0.103978 0.516789
2747 1 0.202015 0.108013 0.513217
2757 2 0.179132 0.116428 0.810233
2758 1 0.181396 0.135339 0.810207
2759 1 0.161879 0.113701 0.818427
2773 2 0.118338 0.426862 0.111501
2774 1 0.136601 0.426011 0.105811
2775 1 0.10991 0.412944 0.100734
2777 2 0.361342 0.0694005 0.359226
2778 1 0.368144 0.0597087 0.375465
2779 1 0.365951 0.0587712 0.342768
2789 2 0.348091 0.431337 0.939488
2790 1 0.351693 0.412753 0.937204
2791 1 0.329501 0.432175 0.943738
2793 2 0.0301659 0.145893 0.726355
2794 1 0.028334 0.163873 0.732899
2795 1 0.0131065 0.141483 0.718558
2799 1 0.496642 0.462481 0.228813
2806 1 0.279085 0.483687 0.376519
2813 2 0.266703 0.443139 0.643765
2814 1 0.251227 0.440717 0.65552
2815 1 0.271381 0.42556 0.637626
2821 2 0.470815 0.2738 0.0299377
2822 1 0.471275 0.28737 0.0153931
2823 1 0.452853 0.273856 0.0367367
2837 2 0.424732 0.200551 0.426765
2838 1 0.429086 0.195126 0.407461
2839 1 0.428074 0.185134 0.438384
2853 2 0.369011 0.136646 0.583322
2854 1 0.354814 0.147053 0.575455
2855 1 0.360327 0.122782 0.59393
2869 2 0.414222 0.371419 0.532338
2870 1 0.429591 0.362091 0.525565
2871 1 0.412017 0.365535 0.551915
2909 2 0.427136 0.0441086 0.226998
2910 1 0.444678 0.0478634 0.220123
2911 1 0.415882 0.0474637 0.210687
2913 2 0.331319 0.339641 0.904813
2914 1 0.341307 0.339891 0.887169
2915 1 0.340227 0.326845 0.91671
2921 2 0.166512 0.285543 0.977546
2922 1 0.153722 0.273109 0.984768
2923 1 0.156109 0.299916 0.970034
2945 2 0.2828 0.213028 0.170446
2946 1 0.293185 0.198468 0.177546
2947 1 0.268478 0.204795 0.160167
2985 2 0.399441 0.0974949 0.995487
2986 1 0.407119 0.0871009 0.0107146
2987 1 0.387099 0.0857262 0.986287
2989 2 0.181759 0.215241 0.357294
2990 1 0.176011 0.197389 0.360896
2991 1 0.171692 0.220775 0.340765
3017 2 0.0623772 0.385173 0.914289
3018 1 0.0562188 0.3736 0.89925
3019 1 0.0763259 0.375424 0.923558
3021 2 0.110276 0.111193 0.274061
3022 1 0.10361 0.108518 0.254859
3023 1 0.103924 0.12845 0.27945
3097 2 0.432058 0.155286 0.456808
3098 1 0.420169 0.158506 0.472609
3099 1 0.423481 0.14178 0.445568
3101 2 0.0232659 0.410758 0.80737
3102 1 0.0390653 0.401535 0.813048
3103 1 0.0175366 0.419705 0.824579
3105 2 0.0274289 0.103097 0.0293649
3106 1 0.0240362 0.119748 0.019999
3107 1 0.0463892 0.101893 0.0301695
3129 2 0.401332 0.491508 0.765388
3130 1 0.420018 0.492924 0.768889
3133 2 0.334662 0.492174 0.987339
3135 1 0.350776 0.482135 0.986035
3137 2 0.285371 0.36515 0.290028
3138 1 0.266666 0.368407 0.291145
3139 1 0.286827 0.346273 0.287762
3189 2 0.372126 0.252539 0.764459
3190 1 0.374852 0.271189 0.761479
3191 1 0.362295 0.251491 0.782173
3209 2 0.00590153 0.34117 0.163869
3210 1 0.0127887 0.352413 0.178829
3211 1 0.0192933 0.327879 0.161167
3225 2 0.121157 0.236821 0.050107
3226 1 0.103596 0.241122 0.0436874
3227 1 0.125162 0.250047 0.0643765
3233 2 0.11199 0.186276 0.0680405
3234 1 0.115452 0.20466 0.0641479
3235 1 0.127376 0.177159 0.0609792
3237 2 0.12508 0.166711 0.622035
3238 1 0.129772 0.158548 0.60401
3239 1 0.119162 0.15228 0.633932
3243 1 0.00180885 0.255427 0.773723
3245 2 0.0933295 0.04738 0.212649
3246 1 0.100486 0.0434326 0.193922
3247 1 0.108056 0.0454252 0.225592
3249 2 0.46796 0.0848199 0.41382
3250 1 0.484194 0.0939785 0.417952
3251 1 0.468715 0.0812951 0.393456
3261 2 0.188513 0.429114 0.22788
3262 1 0.183319 0.437737 0.245483
3263 1 0.190024 0.410712 0.232971
3269 2 0.209505 0.034695 0.630825
3270 1 0.220027 0.0275656 0.646256
3271 1 0.219614 0.049445 0.623714
3273 2 0.137587 0.364212 0.886458
3274 1 0.132448 0.376823 0.900954
3275 1 0.123174 0.351807 0.885734
3277 2 0.0292099 0.0158779 0.496247
3278 1 0.0377299 0.0246044 0.480327
3281 2 0.429885 0.317564 0.6245
3282 1 0.420231 0.314489 0.64205
3283 1 0.418463 0.328702 0.613194
3293 2 0.165231 0.391859 0.73682
3294 1 0.182091 0.3835 0.739823
3295 1 0.1562 0.380418 0.723484
3301 2 0.293254 0.416029 0.217063
3302 1 0.277453 0.425316 0.222614
3303 1 0.288522 0.397608 0.218146
3317 2 0.12515 0.424583 0.485439
3318 1 0.137782 0.428193 0.470446
3319 1 0.130737 0.435459 0.501336
3337 2 0.421041 0.343687 0.0817483
3338 1 0.436192 0.347612 0.093526
3339 1 0.406481 0.351914 0.0916279
3353 2 0.466127 0.463214 0.626449
3354 1 0.462714 0.449378 0.61269
3355 1 0.484729 0.461822 0.630456
3365 2 0.21522 0.147685 0.174103
3366 1 0.212037 0.129357 0.178555
3367 1 0.206871 0.150331 0.155695
3369 2 0.112256 0.124109 0.652504
3370 1 0.129062 0.122363 0.662014
3371 1 0.0996947 0.125851 0.667957
3373 2 0.400206 0.221986 0.720153
3374 1 0.397832 0.232721 0.737087
3375 1 0.406467 0.234126 0.705706
3389 2 0.290262 0.376467 0.087604
3390 1 0.306606 0.379872 0.0776796
3391 1 0.288933 0.390486 0.101568
3393 2 0.0764377 0.209325 0.213305
3394 1 0.0876924 0.198138 0.201859
3395 1 0.0639137 0.216479 0.199785
3399 1 0.0150734 0.444526 0.474411
3417 2 0.11992 0.0694285 0.888502
3418 1 0.100909 0.069544 0.888663
3419 1 0.12469 0.0550675 0.901092
3437 2 0.166714 0.00376737 0.517452
3438 1 0.164077 0.0167824 0.502586
3477 2 0.247344 0.447096 0.800739
3478 1 0.244426 0.463339 0.790386
3479 1 0.258399 0.452078 0.816716
3485 2 0.0964809 0.154376 0.803268
3486 1 0.0821377 0.166138 0.798652
3487 1 0.0995513 0.144611 0.78578
3493 2 0.168289 0.159018 0.330829
3494 1 0.159995 0.147671 0.344815
3495 1 0.186226 0.152778 0.329773
3501 2 0.490459 0.477754 0.524519
3502 1 0.471932 0.481968 0.525322
3503 1 0.499236 0.494285 0.528317
3509 2 0.465443 0.25558 0.891803
3510 1 0.470626 0.260334 0.911074
3511 1 0.446438 0.25536 0.892355
3513 2 0.100659 0.255468 0.39223
3514 1 0.108613 0.251107 0.374001
3515 1 0.100585 0.27451 0.392706
3537 2 0.430109 0.409026 0.96145
3538 1 0.426965 0.412747 0.981498
3539 1 0.435421 0.390741 0.961086
3545 2 0.373453 0.240442 0.00194653
3546 1 0.389362 0.241747 0.99068
3547 1 0.374404 0.223223 0.0107511
3561 2 0.0724425 0.253922 0.0230363
3562 1 0.0650653 0.248649 0.00480502
3563 1 0.0841168 0.268336 0.0183877
3602 1 0.154507 0.493236 0.333675
3609 2 0.472596 0.019082 0.524682
3610 1 0.474767 0.0353239 0.535253
3611 1 0.456756 0.0217055 0.513573
3617 2 0.484137 0.314505 0.629963
3618 1 0.46596 0.314544 0.623884
3619 1 0.484213 0.304129 0.647354
3621 2 0.336341 0.476186 0.113791
3622 1 0.334437 0.494398 0.119497
3623 1 0.320603 0.472417 0.102903
3641 2 0.495265 0.376599 0.791146
3645 2 0.410659 0.0137219 0.367863
3646 1 0.40287 0.000412248 0.355702
3647 1 0.423326 0.0224918 0.355698
3653 2 0.322254 0.363952 0.44228
3654 1 0.320951 0.345249 0.445936
3655 1 0.336191 0.369907 0.454808
3689 2 0.409332 0.177127 0.100865
3690 1 0.414792 0.159603 0.106392
3691 1 0.425588 0.186487 0.0974303
3713 2 0.26668 0.28471 0.961172
3714 1 0.267861 0.298827 0.975035
3715 1 0.27807 0.290157 0.945663
3729 2 0.223856 0.216497 0.71048
3730 1 0.228976 0.233469 0.702901
3731 1 0.238097 0.204842 0.705213
3745 2 0.331129 0.25446 0.539531
3746 1 0.334839 0.236566 0.533691
3747 1 0.347963 0.261397 0.545521
3749 2 0.176365 0.418062 0.667012
3750 1 0.178537 0.415235 0.64664
3751 1 0.165778 0.403362 0.673381
3773 2 0.438357 0.4261 0.907628
3774 1 0.449662 0.441362 0.906259
3775 1 0.439286 0.420958 0.927571
3785 2 0.0997268 0.29846 0.0172098
3786 1 0.109371 0.303951 0.000366631
3787 1 0.107569 0.308312 0.0327619
3789 2 0.0788455 0.37104 0.22352
3790 1 0.0950213 0.379832 0.218312
3791 1 0.0838632 0.352856 0.226373
3813 2 0.285145 0.426289 0.930888
3814 1 0.290419 0.408985 0.937372
3815 1 0.269941 0.430547 0.942445
3825 2 0.190609 0.0111541 0.704336
3826 1 0.205248 0.00274726 0.713893
3827 1 0.197262 0.028244 0.698752
3849 2 0.189124 0.156966 0.698385
3850 1 0.185449 0.173361 0.688618
3851 1 0.17868 0.144011 0.688319
3853 2 0.168238 0.134926 0.453724
3854 1 0.17425 0.128922 0.47228
3855 1 0.178955 0.125371 0.440116
3861 2 0.161716 0.481103 0.656209
3862 1 0.174971 0.49083 0.666643
3863 1 0.159672 0.464897 0.666875
3889 2 0.476254 0.311983 0.872647
3890 1 0.474679 0.295171 0.882242
3891 1 0.494967 0.315282 0.871918
3901 2 0.294864 0.301175 0.516024
3902 1 0.312799 0.29537 0.513303
3903 1 0.296054 0.320165 0.516956
3917 2 0.339875 0.00223429 0.147491
3919 1 0.3347 0.00523525 0.127804
3925 2 0.270241 0.0960799 0.216844
3926 1 0.259695 0.0860635 0.230216
3927 1 0.288156 0.0910665 0.221139
3933 2 0.0451164 0.298816 0.920806
3934 1 0.0390985 0.288239 0.904857
3935 1 0.0307913 0.310864 0.924526
3937 2 0.29744 0.374507 0.940373
3938 1 0.282391 0.363187 0.937423
3939 1 0.310764 0.36756 0.927658
3957 2 0.061799 0.471654 0.129195
3958 1 0.0520059 0.484867 0.139635
3959 1 0.06729 0.459193 0.14369
3961 2 0.166876 0.436806 0.0965828
3962 1 0.178226 0.451249 0.102015
3963 1 0.163229 0.439761 0.0764851
3965 2 0.235046 0.473042 0.155042
3966 1 0.233998 0.454648 0.160304
3967 1 0.252478 0.478406 0.16091
3981 2 0.421943 0.415103 0.0218579
3982 1 0.403509 0.417637 0.0261204
3983 1 0.424674 0.396341 0.0238366
4005 2 0.410709 0.0159778 0.802226
4006 1 0.409097 0.000133839 0.790851
4007 1 0.409777 0.0301685 0.78843
4009 2 0.369626 0.462041 0.389025
4010 1 0.36506 0.478606 0.380082
4011 1 0.35517 0.450431 0.38437
4025 2 0.403448 0.0528244 0.173203
4026 1 0.412705 0.0396332 0.162165
4027 1 0.409957 0.0694306 0.16594
4037 2 0.262159 0.43602 0.478027
4038 1 0.265862 0.417338 0.478029
4039 1 0.243599 0.437197 0.482339
4041 2 0.303145 0.360136 0.353037
4042 1 0.308163 0.341805 0.351715
4043 1 0.296044 0.364284 0.334336
4047 1 0.404822 0.4963 0.133166
4069 2 0.360372 0.43428 0.143753
4070 1 0.353758 0.44925 0.133152
4071 1 0.36287 0.420748 0.129416
4073 2 0.222747 0.23971 0.526587
4074 1 0.237289 0.246666 0.537593
4075 1 0.207764 0.241162 0.539256
4113 2 0.216228 0.146549 0.63343
4114 1 0.202848 0.15747 0.64213
4115 1 0.206598 0.134694 0.621055
4119 1 0.010756 0.314188 0.2334
4149 2 0.474702 0.210111 0.345268
4150 1 0.474989 0.228502 0.350653
4151 1 0.467257 0.209994 0.326186
4165 2 0.0499423 0.189297 0.449488
4166 1 0.0644348 0.201394 0.452079
4167 1 0.0477757 0.181035 0.468024
4169 2 0.0433986 0.11373 0.50614
4170 1 0.0420313 0.13257 0.503482
4171 1 0.0401258 0.106424 0.487323
4173 2 0.0185236 0.117913 0.0894512
4174 1 0.00248965 0.109386 0.095617
4175 1 0.0223651 0.110085 0.0710149
4201 2 0.42263 0.112483 0.420268
4202 1 0.439137 0.103179 0.418458
4203 1 0.416083 0.113786 0.400849
4205 2 0.16325 0.447695 0.282208
4206 1 0.14515 0.442166 0.284231
4207 1 0.162167 0.465243 0.274231
4209 2 0.42401 0.0204396 0.993428
4210 1 0.434771 0.0175878 0.976615
4211 1 0.423272 0.00341904 0.00270145
4217 2 0.318652 0.00530156 0.0250958
4219 1 0.318203 0.0175311 0.00920408
4225 2 0.379515 0.190417 0.147767
4226 1 0.390756 0.193887 0.131474
4227 1 0.384773 0.173137 0.154338
4273 2 0.408643 0.259251 0.430529
4274 1 0.405869 0.25333 0.450007
4275 1 0.411697 0.243268 0.419752
4297 2 0.0918008 0.280557 0.493366
4298 1 0.0841693 0.280935 0.512357
4299 1 0.100588 0.297359 0.491493
4305 2 0.255247 0.203724 0.399295
4306 1 0.24289 0.209237 0.413868
4307 1 0.267665 0.218096 0.397979
4317 2 0.111319 0.34444 0.427317
4318 1 0.111554 0.342224 0.447913
4319 1 0.128351 0.351812 0.42279
4325 2 0.464058 0.300103 0.328253
4326 1 0.473246 0.287112 0.339636
4327 1 0.477769 0.308973 0.317615
4337 2 0.237045 0.184564 0.550866
4338 1 0.220467 0.177147 0.55702
4339 1 0.23315 0.202868 0.547013
4349 2 0.0424157 0.25313 0.967756
4350 1 0.0427528 0.265623 0.952105
4351 1 0.0264136 0.2432 0.964838
4353 2 0.112875 0.316288 0.0684698
4354 1 0.0979406 0.328001 0.0699017
4355 1 0.127914 0.32789 0.0672798
4421 2 0.145398 0.152291 0.0373652
4422 1 0.147456 0.157827 0.0176488
4423 1 0.162405 0.145267 0.0426079
4433 2 0.468774 0.428422 0.442552
4434 1 0.463462 0.428358 0.422639
4435 1 0.452435 0.428259 0.453155
4441 2 0.352119 0.365243 0.535933
4442 1 0.357098 0.347295 0.540258
4443 1 0.333422 0.364366 0.532296
4447 1 0.490511 0.33334 0.0944566
4449 2 0.398559 0.216203 0.535267
4450 1 0.416349 0.210484 0.539108
4451 1 0.389476 0.213979 0.553325
4473 2 0.434757 0.077919 0.714191
4474 1 0.451093 0.0871783 0.717498
4475 1 0.421248 0.0905012 0.719218
4482 1 0.498286 0.00210077 0.492606
4501 2 0.150043 0.471176 0.943904
4502 1 0.136877 0.473266 0.958691
4503 1 0.16166 0.486076 0.946422
4545 2 0.236881 0.0684167 0.751655
4546 1 0.233252 0.061291 0.732834
4547 1 0.243261 0.0860441 0.748009
4557 2 0.463368 0.229623 0.999286
4558 1 0.470054 0.243124 0.0119667
4559 1 0.467471 0.213245 0.00888039
4565 2 0.395118 0.137102 0.680168
4566 1 0.398547 0.126586 0.663286
4567 1 0.379272 0.146754 0.675598
4569 2 0.0462004 0.427318 0.3142
4570 1 0.0511771 0.413866 0.300558
4571 1 0.0553064 0.422537 0.331645
4577 2 0.0200417 0.290292 0.716586
4578 1 0.0148883 0.280352 0.73336
4579 1 0.0341392 0.301532 0.723207
4629 2 0.0101708 0.191583 0.749555
4630 1 0.00980387 0.197431 0.729822
4631 1 0.0244264 0.201405 0.758154
4653 2 0.0232195 0.0150568 0.559365
4654 1 0.0288622 0.0125929 0.539743
4655 1 0.0390236 0.0200656 0.569522
4677 2 0.196028 0.387766 0.514643
4678 1 0.199836 0.405589 0.508623
4679 1 0.202488 0.386826 0.534121
4685 2 0.284946 0.26023 0.631576
4686 1 0.293785 0.247508 0.619523
4687 1 0.276765 0.272315 0.61826
4693 2 0.2698 0.143139 0.804431
4694 1 0.262885 0.155515 0.818273
4695 1 0.272034 0.126966 0.815111
4697 2 0.192232 0.311719 0.138736
4698 1 0.207416 0.31418 0.150927
4699 1 0.191228 0.327726 0.127549
4701 2 0.484469 0.360567 0.0268088
4702 1 0.482131 0.379344 0.029178
4703 1 0.490239 0.354464 0.0454186
4705 2 0.231121 0.313771 0.0504635