# LAMMPS data file written by OVITO Basic 3.8.4

3072 atoms
2 atom types

0.0 32.3140440496 xlo xhi
0.0 32.3140440496 ylo yhi
0.0 32.3140440496 zlo zhi

Masses

1 1.00794005  # H
2 15.9994001  # O

Atoms  # atomic

1 1 2.1540218623 0.8957937721 0.7229588761
2 1 1.3462709346 3.9069941239 1.5281376059
3 1 0.2862507278 0.2336499269 1.1266097574
4 1 1.9503787567 1.6478385193 2.0895876585
5 1 4.0546369912 0.4338661281 2.427463303
6 1 2.4189647095 3.7944119944 2.5480431584
7 1 2.169968843 1.4760926066 5.8840158099
8 1 2.0167194891 1.5543572213 7.3667941922
9 1 2.9747824241 15.9370894096 9.3167043953
10 1 2.0133588286 2.0102243663 10.5686474039
11 1 3.8386822348 2.5935251754 11.8132389675
12 1 1.5238139868 0.7251061443 13.9440270321
13 1 0.1174381224 0.5336244292 13.4662477338
14 1 1.4587254236 1.541402521 11.939796921
15 1 3.7119788681 1.3423690138 14.9883199936
16 1 2.5034174636 2.3700250897 15.0232514753
17 1 1.8643426144 7.1489652213 1.0378818552
18 1 0.9538928076 6.3526017627 3.3270701324
19 1 3.6424875163 5.4162053942 3.9942420428
20 1 3.2154574242 5.8387599912 2.5102357269
21 1 1.2267865253 7.6914533928 3.6975668044
22 1 1.3547792224 5.7165321196 5.513648394
23 1 0.2039323163 4.6206174727 5.4691034843
24 1 3.6313876422 7.0155405334 6.0308669831
25 1 3.7744742293 7.0843048191 8.9732545781
26 1 1.2753028311 6.0400926427 8.9361095844
27 1 3.4477630869 6.5474554483 10.4063985887
28 1 0.0563057676 4.8549104491 12.0494546295
29 1 2.3046053076 5.5195941782 12.2565553378
30 1 1.7390125946 4.4536669641 13.3762208071
31 1 2.0184967616 7.4888281796 15.6799374784
32 1 0.1247512753 3.9436059358 15.6807453295
33 1 1.2626761183 5.0867960292 15.9039061177
34 1 1.4223107274 11.702159441 1.1960704107
35 1 2.7304559371 11.1566822205 3.3140798867
36 1 3.394283344 11.3706335061 4.6600244494
37 1 2.2991603911 9.44634834 4.6028770625
38 1 0.8619561209 9.0902960456 5.3063376444
39 1 3.316519597 8.5326849015 10.4367576331
40 1 2.7197438315 9.9735196546 10.5596156286
41 1 0.1919357274 11.4665900599 11.9353375829
42 1 1.3299038713 9.5079227509 13.5075289251
43 1 1.1437814404 8.3203816321 12.5258121098
44 1 3.0735179857 10.2158103569 15.1608769889
45 1 0.7576480024 11.1207813175 15.4182260357
46 1 1.8238046462 15.3934734779 2.3017455147
47 1 2.8629919887 14.6526901751 3.0057554354
48 1 1.4619503652 13.0358246671 2.1351181465
49 1 3.4129447044 13.4813545494 5.5249421524
50 1 0.7223497564 15.5562877889 4.5081807564
51 1 2.6000687693 12.2581387259 6.2638673977
52 1 0.0936788984 13.2493558701 7.1600489384
53 1 3.7801130299 16.1012479848 5.9294493559
54 1 0.9320452824 15.1090291052 8.292429984
55 1 1.1485623032 12.491462281 11.2234753495
56 1 2.9294942914 13.7404647116 11.3482883447
57 1 1.7547818481 15.8541263329 10.0722067451
58 1 1.9186786795 14.8238576665 12.1118692056
59 1 1.5030586763 14.7962291588 15.0211833764
60 1 1.8156615071 12.4348803899 15.5257348602
61 1 2.8209675745 14.5613868437 15.7550514738
62 1 7.6876726496 0.3081451084 1.2089475573
63 1 5.8805258932 0.9676618218 0.0872425871
64 1 7.1749780267 1.8111375409 1.4367405637
65 1 7.2982884188 4.1841516797 1.0869733509
66 1 5.510707816 0.3124089465 2.5970150922
67 1 6.8774464661 2.5002183732 4.5015079063
68 1 7.4038745577 0.3653361192 4.9301537006
69 1 5.6407072152 3.5184662153 6.3487725485
70 1 4.2685074917 2.7719633267 6.6762753849
71 1 5.1829626243 2.944568793 8.4531761961
72 1 5.4221027073 1.4939541944 9.053167209
73 1 4.9236908918 2.7180796582 10.7556487768
74 1 6.9917250829 2.9911171734 10.4049929278
75 1 7.9025287285 3.0009729568 11.8205742555
76 1 8.1954716948 1.2001904514 13.274900122
77 1 5.5501147928 1.7010274358 12.6090207733
78 1 6.8081328416 3.6654951157 14.0695347792
79 1 5.5277696313 0.8404995956 13.8980764615
80 1 6.8282483341 6.3058271839 1.8897899241
81 1 5.6071813945 5.4583913787 2.2563604398
82 1 7.0617334594 7.2429344614 5.1546878357
83 1 5.1745448158 8.1020033224 4.1003775205
84 1 7.2165500444 4.0527950907 4.3177379378
85 1 7.8395971277 5.9254747284 6.5998849848
86 1 3.901177596 5.4200669225 6.35066292
87 1 7.9449893824 4.8301417343 7.7357236331
88 1 5.9746243894 6.6603445612 8.0166457751
89 1 7.6091979936 6.9752287634 11.2159946483
90 1 5.1648667596 6.4313995591 11.7959347969
91 1 4.8474459049 4.9006186644 11.6149923072
92 1 7.6323025351 7.6868486415 12.6179394494
93 1 4.7046824583 5.619283004 13.7930719753
94 1 5.0216832304 5.4583913787 15.3578957154
95 1 6.4757182705 7.4331833957 14.778747261
96 1 5.9197874567 10.9114347832 2.0774375779
97 1 7.2000052538 10.9491775866 16.0980747456
98 1 6.0501746244 12.0539139675 0.0112853083
99 1 7.3098568466 8.6732509931 2.7144281712
100 1 5.0099209184 10.734515392 3.3654269027
101 1 7.5041935075 11.437329693 5.5187055419
102 1 5.2190574115 8.6671436388 5.5456877687
103 1 4.9805959234 11.1963961806 6.118841968
104 1 6.8955423308 11.758579762 4.2275494409
105 1 5.3703517657 10.4231857346 7.3863603459
106 1 5.8016634687 8.1988969835 8.6101416651
107 1 7.7485684656 10.3301536018 8.9483727642
108 1 6.3920572105 8.6759007447 10.9234556075
109 1 5.234083442 9.5788520776 10.3725334705
110 1 4.9675733637 10.6520499516 13.7034812882
111 1 5.4558062552 10.1574027223 12.360897386
112 1 4.3579689227 9.930558133 15.8713497184
113 1 7.1837028186 8.775137174 15.2913772558
114 1 4.4969516261 15.5582589456 4.7788593464
115 1 7.3882022464 13.8611738232 5.492337282
116 1 5.8710578783 15.5516668806 7.6383775754
117 1 7.1798897614 13.7492864456 7.7992692007
118 1 4.5495750468 12.1602433295 9.4700506913
119 1 6.5809327979 13.0197161161 8.9171250836
120 1 6.2424916576 15.3313497283 9.1378138474
121 1 4.4056159806 13.3425334162 8.324711714
122 1 5.0542719438 12.3143974766 11.9401846895
123 1 5.189360805 13.5533987106 11.2159784913
124 1 6.2173190173 15.5253147777 11.9617704709
125 1 7.4458181869 12.7213282333 13.7041275691
126 1 7.1690645567 14.403936664 12.2497693885
127 1 4.4475919238 13.2243448 15.1318912914
128 1 4.8962239544 16.0014945308 15.4909972629
129 1 5.6572843198 13.9137972439 14.7424262754
130 1 8.6080250952 3.458135895 0.9532756094
131 1 11.038929844 4.2710603012 0.8210319998
132 1 10.9030331317 1.6093282573 3.5991220692
133 1 10.4277581718 2.7220219716 4.5546160377
134 1 8.4240127714 1.2431875184 4.0169103447
135 1 10.1149905395 2.390738392 7.0641570127
136 1 10.3416089304 0.3394380286 7.4345567426
137 1 10.2475589052 3.8716587167 7.36593787
138 1 10.1459958647 0.6799779661 5.9923809566
139 1 9.6330265725 0.3343097898 9.6688305333
140 1 9.2611888676 1.8205732418 9.5981597189
141 1 8.4128644262 0.3586228766 12.0298400047
142 1 10.5626531487 1.8456004689 13.4190530725
143 1 11.3935764774 2.4910250277 14.5043363989
144 1 9.8257798452 5.2840409541 0.5589554084
145 1 10.1245554965 4.4859971652 3.1124240948
146 1 12.318323633 6.889806588 3.7046435801
147 1 8.3517908829 7.1270886134 4.390476851
148 1 10.3693182232 4.8564938372 4.6591842843
149 1 9.9267127618 6.5282932202 7.0139571452
150 1 11.1267594157 6.2330882708 7.8638326607
151 1 9.4851898209 6.0939924682 9.8010757585
152 1 8.6615533092 4.9879312114 10.4647739093
153 1 11.1938433711 5.9843024456 14.0372692062
154 1 11.3508896252 4.5779306205 13.5165122293
155 1 8.0852969616 4.5430152959 13.6318733666
156 1 9.8101560049 7.1570437323 16.0022700678
157 1 8.5427991973 6.8783189453 15.1601499229
158 1 9.8949803706 9.3426364156 0.7560419944
159 1 10.8742090044 8.6491770303 1.786304198
160 1 9.4305790865 11.6580346139 0.2268074281
161 1 11.7350874519 11.7836877742 1.3963334673
162 1 8.7082147888 8.1518962064 2.2038824323
163 1 10.8014216202 10.8888634234 4.8275889248
164 1 9.6167726083 9.8565428152 5.6864315876
165 1 8.3528734034 8.9277725611 5.6113175922
166 1 12.0393726477 10.5585654221 5.7519644689
167 1 8.8796892635 10.1807980902 7.9745405757
168 1 9.4497090006 9.4662214771 10.3829062787
169 1 11.7127584475 9.3029062985 11.3790513146
170 1 9.3849354993 8.2350240847 11.4326764707
171 1 8.8143987375 10.7038816782 12.4314874152
172 1 9.6601542124 11.9580705129 12.8485809388
173 1 8.9778108583 11.0134179062 15.0373727125
174 1 10.8923371831 13.1356750632 1.4635903029
175 1 9.7637368806 15.4905287092 1.5229415076
176 1 11.6519757306 14.5967707219 0.2447126399
177 1 10.0386001393 12.4494863378 3.1790718106
178 1 8.5694259696 15.0791063004 2.3736281057
179 1 11.2330887776 13.5064787186 5.0256578578
180 1 8.9753226769 12.5299321504 4.2963460407
181 1 8.5313923397 14.7825118471 6.1139302333
182 1 11.5699303728 14.7356080122 5.8727382085
183 1 8.9523635486 13.9759371506 9.5354543165
184 1 10.5410835243 14.2485707402 9.5569431557
185 1 10.6393990033 13.860317501 11.9608979918
186 1 10.6467827624 14.4345542208 13.7192505417
187 1 12.0391949205 13.4006825384 12.5182990946
188 1 9.926098795 15.7863960966 14.1560071611
189 1 8.1326855072 14.1151298953 14.0830582066
190 1 12.5382853308 2.5076021323 1.3867361963
191 1 15.3698842258 1.2643015148 1.3386997541
192 1 12.9531168713 4.0358302175 1.3351274365
193 1 12.0294037651 0.324222961 2.0273184956
194 1 14.9854925148 2.7042815614 3.2569001857
195 1 13.1137661413 1.19961203 2.8257015819
196 1 15.2964505607 1.2673471134 3.9390819696
197 1 12.1799710534 2.8913152484 8.3534550562
198 1 15.0537397758 2.9895822563 7.4842880564
199 1 13.1020199863 2.5553622894 9.4972591164
200 1 13.8273733331 3.0221063416 11.7000428712
201 1 13.9911409083 0.2667637435 10.4959731188
202 1 14.076013745 1.2091656771 13.8718697717
203 1 12.4211307641 2.3947938045 12.084305326
204 1 13.9265128202 3.5097737374 15.3341933641
205 1 14.9648599977 0.7760896273 15.131616622
206 1 14.6879447972 7.3543694423 1.0695350771
207 1 13.9889112393 5.2390274907 3.234344983
208 1 15.5687448529 5.1694553539 3.0554705921
209 1 15.399354634 7.7348673109 2.3024887377
210 1 12.9498531529 6.1208777528 4.8938811862
211 1 13.973303556 6.4601267443 7.4166709192
212 1 15.0722718801 6.4418208383 6.2290974863
213 1 16.1492989683 4.050096868 7.6350492289
214 1 13.3357797809 6.1100687051 9.5971095125
215 1 13.0977222184 4.7682441829 8.7821493216
216 1 15.9845296576 6.4558128194 8.9555141679
217 1 15.8550311261 4.8838315185 10.5605688929
218 1 14.3528966315 6.1143826299 11.5639522746
219 1 12.9541832348 6.2210674464 12.3248833839
220 1 15.6081518296 7.3230248195 14.5175528429
221 1 14.0243274316 7.1333090669 14.2536440452
222 1 14.6267581548 4.7710393477 14.6779112865
223 1 16.0561860503 11.1802068445 3.1198724819
224 1 13.9170771194 11.0824730183 2.0247656861
225 1 13.1416208473 8.5191937881 2.8391603813
226 1 12.0689723121 9.2387952351 3.7453592756
227 1 14.5663470494 9.8623755001 6.2214552149
228 1 14.6061256376 8.3884026948 6.0559911524
229 1 15.2235823913 10.2319027508 4.0656237661
230 1 13.317506189 11.6411182118 7.7145579343
231 1 13.7990016024 11.5774595451 9.6953926775
232 1 15.5251208934 8.9425723933 9.0408394012
233 1 16.0527122906 11.2878126112 9.6072076513
234 1 12.3655344513 10.8830145814 9.8245034405
235 1 15.7824699402 11.3035818647 8.0448236215
236 1 13.136256716 8.5002416013 11.4015580463
237 1 14.6299895592 8.0762005582 9.962080483
238 1 14.874122162 10.9367689937 13.6279795243
239 1 14.1147905979 11.1234956972 12.2800961189
240 1 15.1999769822 9.4781938304 15.7436123022
241 1 14.4848510303 10.7072423388 16.0584480334
242 1 13.9037152621 12.3729505244 1.2887923287
243 1 14.6286485264 15.1092229895 1.6828831001
244 1 12.4328446051 14.5644889919 1.6312291006
245 1 14.2875737914 14.1352615448 2.893981157
246 1 13.5915615966 13.9124562111 4.8917807733
247 1 14.5612252734 12.8819451893 4.3362700421
248 1 15.8690877353 15.85642063 5.5132606255
249 1 16.0225632875 12.4072195682 5.9507604679
250 1 12.5606789634 12.4842724062 6.5584745373
251 1 15.4854715613 14.8964026953 8.5816568353
252 1 12.7419122794 14.7382254497 9.103043936
253 1 12.2309303009 13.1960215404 9.0711661316
254 1 14.2830659823 14.9656032207 11.0391075712
255 1 14.4478514499 13.4622084783 12.9497562107
256 1 14.0042927242 14.83962692 13.5288723512
257 2 2.0860331136 0.7400691624 1.6555777328
258 2 1.4902154595 3.4748584128 2.3703643872
259 2 0.3327312488 0.1630372778 4.9428208059
260 2 2.7274184169 1.6098355878 6.670491171
261 2 2.1218370744 0.215723711 9.3362543919
262 2 1.9063831857 2.2885452277 11.4576713838
263 2 0.9798312908 0.0849466743 13.445130506
264 2 2.7350283743 1.4860372536 14.7521851168
265 2 1.9737902816 6.7603242135 0.0991375483
266 2 1.248018468 7.162731004 2.8502925694
267 2 3.8126694293 5.2620512471 3.0341433231
268 2 0.4463829731 5.5349595061 5.17913341
269 2 3.355425706 6.0618723084 5.7821781001
270 2 2.9845735795 6.9720458301 9.6047356269
271 2 0.3510743159 5.6637471287 8.8409608817
272 2 1.7552342447 5.3711273028 13.0628392079
273 2 1.0948078909 4.1378618116 15.775732462
274 2 3.3432433114 10.6194773952 3.9200328407
275 2 1.3709233188 11.9820152195 2.1637483896
276 2 1.7722475889 8.6704558283 5.0202614125
277 2 3.4840517584 9.4383667711 10.6824897811
278 2 0.9563454436 11.4872387341 11.2210517962
279 2 1.1054295172 8.6149079866 13.4647612878
280 2 1.7306594142 11.4451012206 15.6593857464
281 2 3.9064124711 9.7212277557 15.0592170063
282 2 1.9014068229 14.5717434948 2.8159104266
283 2 3.4090508621 12.5452166933 5.873788415
284 2 0.519112192 12.5247457464 6.6574686113
285 2 0.0597909988 14.7559497029 7.9834915659
286 2 1.9705427202 14.1389615028 11.3898926764
287 2 1.8576212933 14.1956726501 15.6653153735
288 2 6.8657326252 0.845532508 1.2588372099
289 2 7.662289968 3.2340864706 1.1052000875
290 2 7.4891997911 0.8319476839 4.0365411265
291 2 6.5985277949 3.4601232087 4.7554478215
292 2 4.7817999244 3.5920776076 6.88171192
293 2 5.4495696447 2.442117722 9.2755524602
294 2 4.7231337774 2.9902446942 11.7013031189
295 2 7.8191423378 3.2337794872 10.8837093334
296 2 5.7930194619 0.8228076565 12.9828457918
297 2 7.7850025503 3.6336011542 13.7448594216
298 2 5.033090088 0.8068590601 15.6059867886
299 2 6.2824802871 5.5764830527 1.5054305272
300 2 7.8773237741 7.8598903474 2.633546119
301 2 8.0040917689 7.1451683211 5.3266308641
302 2 5.4353999364 7.8608274547 5.0655980163
303 2 7.304993583 5.4093386599 7.332202008
304 2 5.3563759417 7.3868612136 8.1984769009
305 2 7.0474183378 7.3287928764 11.9958779444
306 2 4.4663663834 5.8040223939 11.7354913775
307 2 5.4476792731 5.5972932971 14.4726524787
308 2 6.2620416542 11.1070155348 0.1829378819
309 2 5.930273364 10.7846183173 3.0308634476
310 2 7.3712535303 12.2045781979 4.9619991911
311 2 5.5675643765 10.4681830409 6.4281035266
312 2 6.2329428576 9.4709393275 10.3593170265
313 2 5.6985493541 10.7381345649 13.0874948235
314 2 7.2704821839 8.0633395687 14.6495395558
315 2 4.7260420414 16.0112695291 2.9420967686
316 2 4.1648763524 15.2571566831 5.6648296491
317 2 7.5819249405 14.7422162342 5.9487893112
318 2 4.6063023512 12.4057977502 8.5520733279
319 2 7.4364471141 13.3282506087 8.6289484387
320 2 5.5019345531 15.6289136029 8.5729482004
321 2 6.7711655753 14.8788238554 11.4681896051
322 2 4.5080838143 12.8375295357 11.2784092244
323 2 7.2868815613 13.6841251758 13.9082876994
324 2 4.8772071395 14.0699710188 15.2645889132
325 2 10.3449534339 1.7748650264 4.4111255251
326 2 10.8227812033 3.1386792556 6.9722720284
327 2 9.6745662761 1.1228774853 9.0715862141
328 2 11.2807681496 2.4954520517 13.5446739187
329 2 8.896896492 0.6937938357 12.8379173043
330 2 10.1201607865 4.488824644 1.1003125883
331 2 9.6687982192 4.592213428 3.9720907656
332 2 10.3034298873 5.831990199 7.5613570514
333 2 8.9293236352 5.9077827893 10.5997173572
334 2 11.8380884673 5.4419273733 13.5509590003
335 2 9.4681118487 6.4980149609 15.3395736525
336 2 10.0553549712 8.5113091614 1.2931805759
337 2 11.3393858255 10.1900399068 5.1313409389
338 2 8.6901997092 9.7217932515 6.0204133899
339 2 8.6859342554 10.1592930939 8.8767002145
340 2 9.8371705457 9.1234502548 11.2197107634
341 2 8.9348170227 11.4015742033 13.2239731885
342 2 8.8253693555 10.9707956821 16.0056630425
343 2 8.7907771713 15.2172649957 1.445045273
344 2 10.8052669914 12.1691943197 1.3416387164
345 2 11.5751329339 14.8489010506 1.229940376
346 2 11.922201924 13.8379723395 5.611931559
347 2 9.9296856539 12.5725866886 4.1380072248
348 2 10.2654124145 16.0658641065 6.5763118896
349 2 12.0588257022 14.1598848463 8.7803397351
350 2 9.6601057414 14.4829121877 9.9878024621
351 2 11.0702744667 13.3227087501 12.6230450684
352 2 10.3719518177 14.9779794995 14.4859173938
353 2 15.4916758578 0.3991285308 0.9059662332
354 2 12.4557714193 3.3582208708 0.7942565829
355 2 14.8160861389 1.7383339996 3.2099478797
356 2 12.2012013803 1.1666436265 2.4765160219
357 2 15.802116879 3.3953173934 7.024814664
358 2 13.14144312 3.0513020804 8.6596467806
359 2 13.1972979452 2.2752479986 11.4805174129
360 2 14.6147373304 3.7968517048 14.7162034287
361 2 14.6463566225 0.5022895007 14.2580387551
362 2 14.5989034488 7.9178778994 1.8446310475
363 2 14.7753704434 4.6446591215 2.908684047
364 2 12.6546482035 5.9761108355 3.9762592773
365 2 14.2649539606 6.8361329608 6.5167571065
366 2 13.1103085386 5.7693655816 8.7346153628
367 2 15.498413336 8.0815323755 9.5066625032
368 2 13.4921474401 6.6991375711 11.6288065611
369 2 15.430925455 4.8696456532 11.4500937404
370 2 14.7294845008 7.1740570765 14.9266809546
371 2 13.4941670679 11.498225509 1.2441908694
372 2 15.1889417361 11.0122061295 3.4548883336
373 2 12.1612450649 8.5815760502 3.0294901007
374 2 14.968010617 9.2331079633 5.6056626345
375 2 13.0353884275 11.6151538774 6.7706970216
376 2 12.8124215235 11.6876019642 9.5564907591
377 2 15.4405065691 10.9667564266 8.8948768642
378 2 12.6937643538 9.4084278093 11.4339205614
379 2 14.7934016799 11.553934921 12.8721055629
380 2 15.1249599289 10.3665069013 15.400824923
381 2 14.0273972657 14.4026441023 1.9928070965
382 2 14.5179244544 13.7908099922 4.574602274
383 2 14.3951795581 15.5607309699 10.2812301391
384 2 13.8542586177 14.1945739726 12.8271405706
385 1 2.1540218623 0.8957937721 16.8799809009
386 1 1.3462709346 3.9069941239 17.6851596307
387 1 0.2862507278 0.2336499269 17.2836317821
388 1 1.9503787567 1.6478385193 18.2466096833
389 1 4.0546369912 0.4338661281 18.5844853278
390 1 2.4189647095 3.7944119944 18.7050651832
391 1 2.169968843 1.4760926066 22.0410378347
392 1 2.0167194891 1.5543572213 23.523816217
393 1 2.9747824241 15.9370894096 25.47372642
394 1 2.0133588286 2.0102243663 26.7256694287
395 1 3.8386822348 2.5935251754 27.9702609923
396 1 1.5238139868 0.7251061443 30.1010490569
397 1 0.1174381224 0.5336244292 29.6232697586
398 1 1.4587254236 1.541402521 28.0968189458
399 1 3.7119788681 1.3423690138 31.1453420184
400 1 2.5034174636 2.3700250897 31.1802735
401 1 1.8643426144 7.1489652213 17.19490388
402 1 0.9538928076 6.3526017627 19.4840921572
403 1 3.6424875163 5.4162053942 20.1512640676
404 1 3.2154574242 5.8387599912 18.6672577517
405 1 1.2267865253 7.6914533928 19.8545888292
406 1 1.3547792224 5.7165321196 21.6706704188
407 1 0.2039323163 4.6206174727 21.6261255091
408 1 3.6313876422 7.0155405334 22.1878890079
409 1 3.7744742293 7.0843048191 25.1302766029
410 1 1.2753028311 6.0400926427 25.0931316092
411 1 3.4477630869 6.5474554483 26.5634206135
412 1 0.0563057676 4.8549104491 28.2064766543
413 1 2.3046053076 5.5195941782 28.4135773626
414 1 1.7390125946 4.4536669641 29.5332428319
415 1 2.0184967616 7.4888281796 31.8369595032
416 1 0.1247512753 3.9436059358 31.8377673543
417 1 1.2626761183 5.0867960292 32.0609281425
418 1 1.4223107274 11.702159441 17.3530924355
419 1 2.7304559371 11.1566822205 19.4711019114
420 1 3.394283344 11.3706335061 20.8170464742
421 1 2.2991603911 9.44634834 20.7598990873
422 1 0.8619561209 9.0902960456 21.4633596692
423 1 3.316519597 8.5326849015 26.5937796579
424 1 2.7197438315 9.9735196546 26.7166376533
425 1 0.1919357274 11.4665900599 28.0923596077
426 1 1.3299038713 9.5079227509 29.6645509499
427 1 1.1437814404 8.3203816321 28.6828341346
428 1 3.0735179857 10.2158103569 31.3178990137
429 1 0.7576480024 11.1207813175 31.5752480605
430 1 1.8238046462 15.3934734779 18.4587675395
431 1 2.8629919887 14.6526901751 19.1627774601
432 1 1.4619503652 13.0358246671 18.2921401713
433 1 3.4129447044 13.4813545494 21.6819641772
434 1 0.7223497564 15.5562877889 20.6652027812
435 1 2.6000687693 12.2581387259 22.4208894225
436 1 0.0936788984 13.2493558701 23.3170709632
437 1 3.7801130299 16.1012479848 22.0864713806
438 1 0.9320452824 15.1090291052 24.4494520088
439 1 1.1485623032 12.491462281 27.3804973743
440 1 2.9294942914 13.7404647116 27.5053103694
441 1 1.7547818481 15.8541263329 26.2292287699
442 1 1.9186786795 14.8238576665 28.2688912303
443 1 1.5030586763 14.7962291588 31.1782054012
444 1 1.8156615071 12.4348803899 31.682756885
445 1 2.8209675745 14.5613868437 31.9120734986
446 1 7.6876726496 0.3081451084 17.3659695821
447 1 5.8805258932 0.9676618218 16.2442646119
448 1 7.1749780267 1.8111375409 17.5937625885
449 1 7.2982884188 4.1841516797 17.2439953757
450 1 5.510707816 0.3124089465 18.754037117
451 1 6.8774464661 2.5002183732 20.6585299311
452 1 7.4038745577 0.3653361192 21.0871757254
453 1 5.6407072152 3.5184662153 22.5057945732
454 1 4.2685074917 2.7719633267 22.8332974097
455 1 5.1829626243 2.944568793 24.6101982209
456 1 5.4221027073 1.4939541944 25.2101892338
457 1 4.9236908918 2.7180796582 26.9126708016
458 1 6.9917250829 2.9911171734 26.5620149526
459 1 7.9025287285 3.0009729568 27.9775962803
460 1 8.1954716948 1.2001904514 29.4319221467
461 1 5.5501147928 1.7010274358 28.766042798
462 1 6.8081328416 3.6654951157 30.226556804
463 1 5.5277696313 0.8404995956 30.0550984862
464 1 6.8282483341 6.3058271839 18.0468119489
465 1 5.6071813945 5.4583913787 18.4133824646
466 1 7.0617334594 7.2429344614 21.3117098605
467 1 5.1745448158 8.1020033224 20.2573995453
468 1 7.2165500444 4.0527950907 20.4747599626
469 1 7.8395971277 5.9254747284 22.7569070096
470 1 3.901177596 5.4200669225 22.5076849448
471 1 7.9449893824 4.8301417343 23.8927456579
472 1 5.9746243894 6.6603445612 24.1736677998
473 1 7.6091979936 6.9752287634 27.3730166731
474 1 5.1648667596 6.4313995591 27.9529568217
475 1 4.8474459049 4.9006186644 27.772014332
476 1 7.6323025351 7.6868486415 28.7749614742
477 1 4.7046824583 5.619283004 29.9500940001
478 1 5.0216832304 5.4583913787 31.5149177402
479 1 6.4757182705 7.4331833957 30.9357692857
480 1 5.9197874567 10.9114347832 18.2344596027
481 1 7.2000052538 10.9491775866 32.2550967704
482 1 6.0501746244 12.0539139675 16.1683073331
483 1 7.3098568466 8.6732509931 18.871450196
484 1 5.0099209184 10.734515392 19.5224489274
485 1 7.5041935075 11.437329693 21.6757275667
486 1 5.2190574115 8.6671436388 21.7027097935
487 1 4.9805959234 11.1963961806 22.2758639928
488 1 6.8955423308 11.758579762 20.3845714657
489 1 5.3703517657 10.4231857346 23.5433823707
490 1 5.8016634687 8.1988969835 24.7671636899
491 1 7.7485684656 10.3301536018 25.1053947889
492 1 6.3920572105 8.6759007447 27.0804776323
493 1 5.234083442 9.5788520776 26.5295554953
494 1 4.9675733637 10.6520499516 29.860503313
495 1 5.4558062552 10.1574027223 28.5179194108
496 1 4.3579689227 9.930558133 32.0283717432
497 1 7.1837028186 8.775137174 31.4483992805
498 1 4.4969516261 15.5582589456 20.9358813712
499 1 7.3882022464 13.8611738232 21.6493593068
500 1 5.8710578783 15.5516668806 23.7953996002
501 1 7.1798897614 13.7492864456 23.9562912255
502 1 4.5495750468 12.1602433295 25.6270727161
503 1 6.5809327979 13.0197161161 25.0741471084
504 1 6.2424916576 15.3313497283 25.2948358722
505 1 4.4056159806 13.3425334162 24.4817337388
506 1 5.0542719438 12.3143974766 28.0972067143
507 1 5.189360805 13.5533987106 27.3730005161
508 1 6.2173190173 15.5253147777 28.1187924957
509 1 7.4458181869 12.7213282333 29.8611495939
510 1 7.1690645567 14.403936664 28.4067914133
511 1 4.4475919238 13.2243448 31.2889133161
512 1 4.8962239544 16.0014945308 31.6480192877
513 1 5.6572843198 13.9137972439 30.8994483002
514 1 8.6080250952 3.458135895 17.1102976342
515 1 11.038929844 4.2710603012 16.9780540246
516 1 10.9030331317 1.6093282573 19.756144094
517 1 10.4277581718 2.7220219716 20.7116380625
518 1 8.4240127714 1.2431875184 20.1739323695
519 1 10.1149905395 2.390738392 23.2211790374
520 1 10.3416089304 0.3394380286 23.5915787674
521 1 10.2475589052 3.8716587167 23.5229598948
522 1 10.1459958647 0.6799779661 22.1494029814
523 1 9.6330265725 0.3343097898 25.8258525581
524 1 9.2611888676 1.8205732418 25.7551817437
525 1 8.4128644262 0.3586228766 28.1868620295
526 1 10.5626531487 1.8456004689 29.5760750973
527 1 11.3935764774 2.4910250277 30.6613584237
528 1 9.8257798452 5.2840409541 16.7159774331
529 1 10.1245554965 4.4859971652 19.2694461196
530 1 12.318323633 6.889806588 19.8616656048
531 1 8.3517908829 7.1270886134 20.5474988758
532 1 10.3693182232 4.8564938372 20.8162063091
533 1 9.9267127618 6.5282932202 23.17097917
534 1 11.1267594157 6.2330882708 24.0208546855
535 1 9.4851898209 6.0939924682 25.9580977833
536 1 8.6615533092 4.9879312114 26.6217959341
537 1 11.1938433711 5.9843024456 30.194291231
538 1 11.3508896252 4.5779306205 29.6735342541
539 1 8.0852969616 4.5430152959 29.7888953914
540 1 9.8101560049 7.1570437323 32.1592920926
541 1 8.5427991973 6.8783189453 31.3171719477
542 1 9.8949803706 9.3426364156 16.9130640192
543 1 10.8742090044 8.6491770303 17.9433262228
544 1 9.4305790865 11.6580346139 16.3838294529
545 1 11.7350874519 11.7836877742 17.5533554921
546 1 8.7082147888 8.1518962064 18.3609044571
547 1 10.8014216202 10.8888634234 20.9846109496
548 1 9.6167726083 9.8565428152 21.8434536124
549 1 8.3528734034 8.9277725611 21.768339617
550 1 12.0393726477 10.5585654221 21.9089864937
551 1 8.8796892635 10.1807980902 24.1315626004
552 1 9.4497090006 9.4662214771 26.5399283035
553 1 11.7127584475 9.3029062985 27.5360733394
554 1 9.3849354993 8.2350240847 27.5896984955
555 1 8.8143987375 10.7038816782 28.58850944
556 1 9.6601542124 11.9580705129 29.0056029636
557 1 8.9778108583 11.0134179062 31.1943947373
558 1 10.8923371831 13.1356750632 17.6206123277
559 1 9.7637368806 15.4905287092 17.6799635324
560 1 11.6519757306 14.5967707219 16.4017346647
561 1 10.0386001393 12.4494863378 19.3360938354
562 1 8.5694259696 15.0791063004 18.5306501304
563 1 11.2330887776 13.5064787186 21.1826798826
564 1 8.9753226769 12.5299321504 20.4533680654
565 1 8.5313923397 14.7825118471 22.2709522581
566 1 11.5699303728 14.7356080122 22.0297602333
567 1 8.9523635486 13.9759371506 25.6924763412
568 1 10.5410835243 14.2485707402 25.7139651805
569 1 10.6393990033 13.860317501 28.1179200165
570 1 10.6467827624 14.4345542208 29.8762725665
571 1 12.0391949205 13.4006825384 28.6753211194
572 1 9.926098795 15.7863960966 30.3130291858
573 1 8.1326855072 14.1151298953 30.2400802314
574 1 12.5382853308 2.5076021323 17.543758221
575 1 15.3698842258 1.2643015148 17.4957217789
576 1 12.9531168713 4.0358302175 17.4921494613
577 1 12.0294037651 0.324222961 18.1843405204
578 1 14.9854925148 2.7042815614 19.4139222105
579 1 13.1137661413 1.19961203 18.9827236067
580 1 15.2964505607 1.2673471134 20.0961039944
581 1 12.1799710534 2.8913152484 24.510477081
582 1 15.0537397758 2.9895822563 23.6413100812
583 1 13.1020199863 2.5553622894 25.6542811412
584 1 13.8273733331 3.0221063416 27.8570648959
585 1 13.9911409083 0.2667637435 26.6529951436
586 1 14.076013745 1.2091656771 30.0288917965
587 1 12.4211307641 2.3947938045 28.2413273508
588 1 13.9265128202 3.5097737374 31.4912153889
589 1 14.9648599977 0.7760896273 31.2886386468
590 1 14.6879447972 7.3543694423 17.2265571018
591 1 13.9889112393 5.2390274907 19.3913670078
592 1 15.5687448529 5.1694553539 19.2124926169
593 1 15.399354634 7.7348673109 18.4595107625
594 1 12.9498531529 6.1208777528 21.050903211
595 1 13.973303556 6.4601267443 23.573692944
596 1 15.0722718801 6.4418208383 22.3861195111
597 1 16.1492989683 4.050096868 23.7920712537
598 1 13.3357797809 6.1100687051 25.7541315373
599 1 13.0977222184 4.7682441829 24.9391713464
600 1 15.9845296576 6.4558128194 25.1125361927
601 1 15.8550311261 4.8838315185 26.7175909176
602 1 14.3528966315 6.1143826299 27.7209742994
603 1 12.9541832348 6.2210674464 28.4819054087
604 1 15.6081518296 7.3230248195 30.6745748677
605 1 14.0243274316 7.1333090669 30.4106660699
606 1 14.6267581548 4.7710393477 30.8349333113
607 1 16.0561860503 11.1802068445 19.2768945067
608 1 13.9170771194 11.0824730183 18.1817877109
609 1 13.1416208473 8.5191937881 18.996182406
610 1 12.0689723121 9.2387952351 19.9023813004
611 1 14.5663470494 9.8623755001 22.3784772397
612 1 14.6061256376 8.3884026948 22.2130131771
613 1 15.2235823913 10.2319027508 20.2226457909
614 1 13.317506189 11.6411182118 23.871579959
615 1 13.7990016024 11.5774595451 25.8524147023
616 1 15.5251208934 8.9425723933 25.197861426
617 1 16.0527122906 11.2878126112 25.7642296761
618 1 12.3655344513 10.8830145814 25.9815254653
619 1 15.7824699402 11.3035818647 24.2018456463
620 1 13.136256716 8.5002416013 27.5585800711
621 1 14.6299895592 8.0762005582 26.1191025078
622 1 14.874122162 10.9367689937 29.7850015491
623 1 14.1147905979 11.1234956972 28.4371181437
624 1 15.1999769822 9.4781938304 31.900634327
625 1 14.4848510303 10.7072423388 32.2154700582
626 1 13.9037152621 12.3729505244 17.4458143535
627 1 14.6286485264 15.1092229895 17.8399051248
628 1 12.4328446051 14.5644889919 17.7882511254
629 1 14.2875737914 14.1352615448 19.0510031818
630 1 13.5915615966 13.9124562111 21.0488027981
631 1 14.5612252734 12.8819451893 20.4932920669
632 1 15.8690877353 15.85642063 21.6702826503
633 1 16.0225632875 12.4072195682 22.1077824927
634 1 12.5606789634 12.4842724062 22.7154965621
635 1 15.4854715613 14.8964026953 24.7386788601
636 1 12.7419122794 14.7382254497 25.2600659608
637 1 12.2309303009 13.1960215404 25.2281881563
638 1 14.2830659823 14.9656032207 27.196129596
639 1 14.4478514499 13.4622084783 29.1067782355
640 1 14.0042927242 14.83962692 29.685894376
641 2 2.0860331136 0.7400691624 17.8125997576
642 2 1.4902154595 3.4748584128 18.527386412
643 2 0.3327312488 0.1630372778 21.0998428307
644 2 2.7274184169 1.6098355878 22.8275131958
645 2 2.1218370744 0.215723711 25.4932764167
646 2 1.9063831857 2.2885452277 27.6146934086
647 2 0.9798312908 0.0849466743 29.6021525308
648 2 2.7350283743 1.4860372536 30.9092071415