ITEM: TIMESTEP
0
ITEM: NUMBER OF ATOMS
384
ITEM: BOX BOUNDS pp pp pp
0.0000000000000000e+00 1.6209994420000001e+01
0.0000000000000000e+00 1.6209994420000001e+01
0.0000000000000000e+00 1.6209994420000001e+01
ITEM: ATOMS id type xs ys zs
54 1 0.0226609 0.00039 0.130135
1 1 0.113939 0.215628 0.314921
2 1 0.056471 0.0679833 0.348641
3 1 0.22112 0.0254177 0.34936
4 1 0.0390427 0.0431459 0.261239
257 2 0.0233746 0.0871875 0.301983
5 1 0.204172 0.120933 0.469865
6 1 0.151484 0.240429 0.397487
258 2 0.21624 0.179169 0.471193
259 2 0.187141 0.0240558 0.397425
7 1 0.186227 0.192335 0.525647
8 1 0.144204 0.155048 0.685862
9 1 0.214857 0.216488 0.681173
260 2 0.141353 0.0120824 0.710217
261 2 0.15891 0.203857 0.657107
11 1 0.0137692 0.158585 0.80792
14 1 0.0136539 0.0895057 0.870825
16 1 0.158172 0.158763 0.868493
262 2 0.0378751 0.142337 0.860174
263 2 0.216804 0.145833 0.874391
12 1 0.239745 0.199086 0.899564
13 1 0.237646 0.0531334 0.941115
15 1 0.0309247 0.240865 0.910295
289 2 0.244598 0.00129 0.974674
17 1 0.198407 0.312664 0.0428364
18 1 0.103889 0.430549 0.0975429
19 1 0.0351465 0.258411 0.0912141
264 2 0.140018 0.327798 0.0425863
20 1 0.100521 0.476274 0.185765
265 2 0.0814443 0.479323 0.126863
21 1 0.10585 0.39462 0.303222
22 1 0.171032 0.454147 0.329253
23 1 0.235617 0.282714 0.304454
266 2 0.121322 0.449042 0.288929
267 2 0.130366 0.263715 0.34654
24 1 0.00384492 0.272223 0.425967
25 1 0.185234 0.424752 0.470584
268 2 0.2428 0.422297 0.448719
26 1 0.0409915 0.385469 0.509907
27 1 0.0640309 0.48455 0.517157
269 2 0.0883933 0.429562 0.513252
28 1 0.109126 0.411299 0.63441
29 1 0.150648 0.340837 0.688941
30 1 0.210824 0.470604 0.719212
270 2 0.12148 0.395431 0.692532
31 1 0.110655 0.468188 0.845838
32 1 0.0100277 0.324886 0.868018
33 1 0.00567858 0.41239 0.762414
34 1 0.118809 0.318865 0.98795
271 2 0.0306132 0.302466 0.919394
35 1 0.0440172 0.744565 0.081348
36 1 0.14156 0.643324 0.0212649
37 1 0.0965719 0.583788 0.0703536
272 2 0.0879261 0.637735 0.0471298
38 1 0.0803766 0.6806 0.353102
39 1 0.198751 0.745055 0.301885
40 1 0.199204 0.660048 0.264403
273 2 0.160855 0.702371 0.284705
41 1 0.0383616 0.645233 0.428004
274 2 0.0262948 0.679118 0.380107
42 1 0.0510743 0.606914 0.578826
43 1 0.206948 0.717607 0.58534
275 2 0.0217879 0.582445 0.532419
44 1 0.108506 0.699191 0.68901
45 1 0.170307 0.625773 0.683163
276 2 0.137141 0.660667 0.649414
46 1 0.0489578 0.545225 0.856654
47 1 0.172915 0.596247 0.869692
277 2 0.0958988 0.521003 0.822684
48 1 0.0162145 0.609748 0.977352
49 1 0.188954 0.690161 0.880383
278 2 0.202042 0.636212 0.901883
50 1 0.234127 0.950035 0.0801845
51 1 0.0847493 0.858952 0.0106364
279 2 0.0336717 0.804435 0.0765399
52 1 0.246907 0.935772 0.174765
53 1 0.10239 0.946475 0.162428
55 1 0.0609018 0.807323 0.248472
280 2 0.214933 0.915481 0.126379
281 2 0.0512507 0.976123 0.178526
56 1 0.00986962 0.880269 0.27743
282 2 0.029522 0.825374 0.295651
58 1 0.093497 0.843002 0.391215
59 1 0.182319 0.964385 0.414205
60 1 0.0973136 0.86973 0.482075
283 2 0.132277 0.856965 0.435477
57 1 0.18666 0.773394 0.511773
61 1 0.055854 0.950081 0.608712
284 2 0.0209647 0.899971 0.594537
285 2 0.230882 0.751544 0.544621
62 1 0.1699 0.960048 0.694888
63 1 0.0363686 0.862096 0.642725
286 2 0.0666711 0.799177 0.719722
64 1 0.224906 0.826102 0.838159
65 1 0.107339 0.806785 0.765267
66 1 0.0182469 0.792959 0.759669
287 2 0.16984 0.804783 0.854366
67 1 0.0246729 0.956003 0.911323
68 1 0.145253 0.9362 0.984173
69 1 0.143895 0.840525 0.898003
288 2 0.104034 0.897255 0.963721
70 1 0.326384 0.18151 0.0996265
71 1 0.421797 0.0903802 0.0352582
290 2 0.346487 0.125189 0.112885
72 1 0.364569 0.122959 0.170358
73 1 0.336894 0.0325591 0.266424
74 1 0.388537 0.183949 0.307169
75 1 0.45558 0.125843 0.275038
292 2 0.396772 0.130776 0.281692
76 1 0.339143 0.151286 0.479771
293 2 0.393688 0.128421 0.472186
77 1 0.409539 0.0287904 0.502034
78 1 0.432857 0.15286 0.511472
294 2 0.461677 0.232159 0.593326
79 1 0.375364 0.21012 0.668873
80 1 0.33964 0.155174 0.742115
295 2 0.33004 0.204832 0.707361
81 1 0.392778 0.0619607 0.858604
82 1 0.357739 0.0101647 0.784673
83 1 0.473487 0.0517908 0.759323
296 2 0.379712 0.066064 0.798766
147 1 0.497137 0.129646 0.995218
297 2 0.469209 0.0775919 0.999707
85 1 0.459549 0.49096 0.114856
86 1 0.347978 0.364964 0.123211
87 1 0.462013 0.303874 0.0270619
88 1 0.305072 0.301392 0.187898
298 2 0.4623 0.450519 0.160343
299 2 0.315664 0.311121 0.129471
89 1 0.318631 0.312459 0.331735
90 1 0.439882 0.46328 0.254249
300 2 0.295626 0.277879 0.291565
301 2 0.426016 0.484043 0.310825
91 1 0.358439 0.391692 0.486474
92 1 0.446347 0.385549 0.441874
93 1 0.255323 0.479669 0.437175
302 2 0.418923 0.384168 0.493272
94 1 0.451629 0.268058 0.545476
95 1 0.416769 0.475294 0.582852
112 1 0.350068 0.496384 0.65731
96 1 0.340101 0.25477 0.830617
97 1 0.280691 0.487943 0.788136
84 1 0.373076 0.256755 0.919994
98 1 0.280891 0.45433 0.93494
99 1 0.296787 0.369563 0.889675
303 2 0.266107 0.420232 0.887582
304 2 0.323846 0.271162 0.886275
305 2 0.489397 0.270393 0.981862
100 1 0.366805 0.552549 0.0207073
118 1 0.477928 0.605796 0.00298
306 2 0.304292 0.546934 0.0230658
307 2 0.481682 0.546014 0.0188844
102 1 0.303427 0.644977 0.185108
103 1 0.299734 0.554711 0.160461
308 2 0.303569 0.586369 0.211177
104 1 0.49826 0.565253 0.315167
105 1 0.376429 0.517842 0.303398
106 1 0.399693 0.666998 0.430181
309 2 0.443173 0.707814 0.422489
310 2 0.317332 0.610049 0.488977
108 1 0.332494 0.58633 0.541297
109 1 0.470207 0.748932 0.526437
110 1 0.279042 0.650356 0.507393
174 1 0.497673 0.715664 0.610649
311 2 0.392179 0.521494 0.616098
10 1 0.28247 0.555517 0.699095
111 1 0.471948 0.607982 0.657373
113 1 0.43576 0.65595 0.732841
312 2 0.486936 0.650488 0.696568
313 2 0.257995 0.504688 0.735481
114 1 0.326585 0.658837 0.856977
314 2 0.381608 0.674505 0.835811
115 1 0.410287 0.698935 0.882377
116 1 0.492481 0.518805 0.963457
117 1 0.287282 0.586284 0.980673
315 2 0.484451 0.709934 0.961851
101 1 0.471045 0.755055 0.00160018
119 1 0.494953 0.863731 0.0985758
316 2 0.471139 0.803315 0.105645
120 1 0.289216 0.811513 0.140789
121 1 0.379055 0.785157 0.144339
317 2 0.323878 0.768838 0.167883
122 1 0.376539 0.831894 0.262195
123 1 0.320274 0.946369 0.30086
124 1 0.442025 0.873643 0.314764
291 2 0.292089 0.993834 0.274526
318 2 0.38443 0.853798 0.31751
107 1 0.417309 0.750305 0.385533
125 1 0.388317 0.939448 0.475673
126 1 0.309705 0.910004 0.586952
127 1 0.250319 0.835311 0.603549
319 2 0.414096 0.970264 0.520834
320 2 0.497083 0.767483 0.577106
321 2 0.26584 0.892845 0.624948
128 1 0.300945 0.894525 0.73003
129 1 0.490778 0.817804 0.710402
130 1 0.384591 0.874538 0.785076
322 2 0.32768 0.895921 0.785326
131 1 0.285931 0.968822 0.940399
323 2 0.69353 0.00282498 0.00780452
133 1 0.595453 0.167094 0.200954
134 1 0.534807 0.243612 0.185282
136 1 0.634542 0.0366353 0.236181
198 1 0.740637 0.0803955 0.168908
324 2 0.549543 0.201387 0.224452
325 2 0.714555 0.11931 0.204225
138 1 0.653997 0.0506512 0.374803
326 2 0.66582 0.242564 0.374368
327 2 0.579383 0.0140971 0.252801
137 1 0.718366 0.0483307 0.452804
139 1 0.6655 0.183604 0.383811
328 2 0.661624 0.0652944 0.432268
140 1 0.641916 0.0750924 0.562845
141 1 0.568905 0.135324 0.560185
329 2 0.612093 0.11409 0.595609
142 1 0.548708 0.0567702 0.696704
205 1 0.748617 0.0235026 0.722646
330 2 0.528562 0.0268311 0.743151
143 1 0.605651 0.0788144 0.830207
144 1 0.663093 0.216729 0.842969
145 1 0.696574 0.0875305 0.819615
331 2 0.653665 0.102685 0.856233
146 1 0.688654 0.0432989 0.962694
148 1 0.627112 0.330106 0.0586027
332 2 0.60171 0.33735 0.111404
149 1 0.641257 0.354378 0.150003
150 1 0.513936 0.420907 0.147605
151 1 0.694146 0.478229 0.206795
333 2 0.706165 0.426608 0.237719
152 1 0.67001 0.438773 0.28684
153 1 0.630382 0.252117 0.327664
154 1 0.668012 0.324929 0.481619
155 1 0.66076 0.416989 0.47712
334 2 0.646858 0.493441 0.394766
159 1 0.515362 0.251602 0.610932
335 2 0.670707 0.370608 0.516883
156 1 0.636354 0.285681 0.715993
157 1 0.580119 0.422097 0.706192
158 1 0.648102 0.330386 0.632625
160 1 0.503306 0.474275 0.684773
336 2 0.606284 0.311521 0.67
337 2 0.554573 0.475382 0.718245
161 1 0.517226 0.440811 0.831657
162 1 0.671635 0.315499 0.855615
338 2 0.672101 0.269363 0.813496
163 1 0.516876 0.313182 0.948345
164 1 0.700071 0.411351 0.955022
165 1 0.585979 0.476653 0.887309
339 2 0.699178 0.35289 0.964664
340 2 0.531934 0.449773 0.892723
166 1 0.746568 0.5872 0.111166
341 2 0.688461 0.56991 0.103199
167 1 0.573843 0.634442 0.225534
168 1 0.624195 0.713269 0.19125
169 1 0.651026 0.612519 0.125568
342 2 0.582908 0.670837 0.174783
170 1 0.710613 0.710617 0.322831
173 1 0.508971 0.641868 0.369414
343 2 0.542246 0.603369 0.339662
171 1 0.603328 0.534705 0.395257
172 1 0.695687 0.529967 0.397811
175 1 0.729852 0.617219 0.736273
176 1 0.65033 0.659209 0.811508
177 1 0.604553 0.590166 0.760154
344 2 0.656293 0.602598 0.791778
178 1 0.686977 0.569383 0.893422
179 1 0.53317 0.732742 0.928924
180 1 0.689183 0.55696 0.995706
345 2 0.697293 0.528242 0.940369
132 1 0.500076 0.999124 0.0638202
181 1 0.636912 0.988015 0.0205248
346 2 0.537477 0.955275 0.0873415
182 1 0.517416 0.776583 0.136571
183 1 0.539487 0.966623 0.147443
184 1 0.726583 0.793324 0.273162
185 1 0.585753 0.964733 0.292067
186 1 0.604767 0.820285 0.342122
347 2 0.68221 0.754829 0.291503
348 2 0.574689 0.871934 0.362131
187 1 0.589946 0.878348 0.419825
188 1 0.673328 0.951279 0.607858
189 1 0.577925 0.842087 0.553789
190 1 0.538195 0.921151 0.524964
349 2 0.594647 0.896909 0.53117
191 1 0.51444 0.907961 0.738257
350 2 0.725715 0.959765 0.633296
192 1 0.601803 0.794129 0.821072
351 2 0.625403 0.755442 0.862688
352 2 0.507643 0.852117 0.759512
193 1 0.715232 0.904203 0.964831
194 1 0.666187 0.790239 0.894583
353 2 0.743542 0.85228 0.949352
195 1 0.97392 0.112373 0.0697937
196 1 0.90428 0.0503026 0.0951364
209 1 0.951651 0.245831 0.0474262
354 2 0.954586 0.0540152 0.0690012
355 2 0.982872 0.224718 0.0937183
135 1 0.761098 0.146556 0.236501
197 1 0.916065 0.206394 0.188234
356 2 0.888257 0.18986 0.238133
357 2 0.806069 0.00372705 0.131268
199 1 0.928356 0.14704 0.261822
358 2 0.810623 0.0334816 0.492307
200 1 0.929714 0.101116 0.534706
201 1 0.96931 0.187621 0.551701
202 1 0.789412 0.0166975 0.549541
359 2 0.968181 0.129762 0.569328
203 1 0.934207 0.130928 0.673165
204 1 0.88037 0.18879 0.726489
360 2 0.911838 0.138323 0.730633
206 1 0.827373 0.0820872 0.750392
361 2 0.783834 0.0417627 0.768733
207 1 0.963507 0.0145555 0.960603
208 1 0.897723 0.375041 0.0365741
210 1 0.976911 0.482354 0.110681
362 2 0.921002 0.465806 0.10252
211 1 0.903833 0.452638 0.158572
212 1 0.856699 0.380669 0.316164
213 1 0.810166 0.445483 0.26807
215 1 0.862992 0.252026 0.323373
363 2 0.843455 0.295933 0.359275
364 2 0.867514 0.432666 0.287383
214 1 0.788517 0.274985 0.377527
216 1 0.936409 0.309378 0.484798
365 2 0.993391 0.299317 0.479632
217 1 0.838075 0.3629 0.616122
218 1 0.848568 0.490782 0.579413
219 1 0.775962 0.375369 0.544784
366 2 0.834631 0.383081 0.560077
220 1 0.861301 0.3162 0.748262
367 2 0.823886 0.282955 0.715763
221 1 0.777859 0.275984 0.754385
222 1 0.925913 0.436392 0.813221
368 2 0.957895 0.389382 0.79034
223 1 0.93116 0.325879 0.957742
224 1 0.75776 0.341253 0.979037
369 2 0.879979 0.33776 0.991714
225 1 0.856642 0.712064 0.0650214
226 1 0.875763 0.56232 0.10599
370 2 0.860878 0.618013 0.122359
227 1 0.888449 0.619747 0.176123
228 1 0.970371 0.618215 0.311925
229 1 0.940674 0.530889 0.284683
230 1 0.839546 0.588879 0.36515
247 1 0.934107 0.747935 0.3642
371 2 0.929053 0.589995 0.277103
231 1 0.804601 0.585222 0.461919
232 1 0.849772 0.719839 0.390415
372 2 0.795907 0.606856 0.403433
233 1 0.82533 0.579877 0.622109
234 1 0.966658 0.572907 0.551605
235 1 0.811624 0.732833 0.616937
373 2 0.849429 0.552777 0.572449
236 1 0.821428 0.599143 0.745269
374 2 0.785719 0.623182 0.704816
237 1 0.869096 0.723746 0.770621
375 2 0.872284 0.530883 0.855672
238 1 0.984269 0.676019 0.911888
239 1 0.829112 0.52182 0.895925
240 1 0.914739 0.568445 0.884658
376 2 0.978712 0.61794 0.930045
241 1 0.97591 0.810936 0.0863092
242 1 0.809903 0.789277 0.0302685
243 1 0.780545 0.985301 0.0768316
377 2 0.849723 0.772162 0.0715431
244 1 0.829462 0.814441 0.176837
245 1 0.810466 0.959244 0.173185
378 2 0.813374 0.845312 0.225403
246 1 0.853962 0.834497 0.267621
379 2 0.87854 0.771327 0.370332
248 1 0.887846 0.840434 0.444732
249 1 0.829045 0.978413 0.469754
380 2 0.870436 0.873159 0.492073
250 1 0.810608 0.80689 0.552836
251 1 0.921095 0.893401 0.51757
381 2 0.777962 0.776969 0.592916
252 1 0.755426 0.906574 0.628674
253 1 0.822719 0.942357 0.798852
254 1 0.894829 0.814126 0.804707
255 1 0.900262 0.945302 0.857281
382 2 0.856726 0.908426 0.83488
383 2 0.913619 0.755914 0.801037
256 1 0.776346 0.861419 0.900962
384 2 0.977524 0.991923 0.906037
ITEM: TIMESTEP
10
ITEM: NUMBER OF ATOMS
384
ITEM: BOX BOUNDS pp pp pp
1.9846971483956815e-04 1.6209795950285166e+01
1.9846971483956815e-04 1.6209795950285166e+01
1.9846971483956815e-04 1.6209795950285166e+01
ITEM: ATOMS id type xs ys zs
54 1 0.0237217 -0.000571059 0.130221
1 1 0.11302 0.215082 0.314775
2 1 0.0562506 0.0698479 0.349566
3 1 0.223967 0.0238404 0.346852
4 1 0.0377528 0.0458022 0.259658
257 2 0.0235676 0.0869751 0.302015
5 1 0.20435 0.1182 0.465132
6 1 0.153519 0.239039 0.398574
258 2 0.215922 0.179301 0.471831
259 2 0.1868 0.0240021 0.397825
7 1 0.190815 0.192846 0.522733
8 1 0.143652 0.150043 0.685481
9 1 0.213463 0.21263 0.67853
260 2 0.141246 0.0119725 0.710145
261 2 0.15913 0.204323 0.657171
11 1 0.0127563 0.156641 0.806617
14 1 0.01351 0.0854557 0.871349
16 1 0.157341 0.154831 0.867577
262 2 0.0379866 0.142816 0.86019
263 2 0.216764 0.146092 0.874704
12 1 0.239877 0.193736 0.89631
13 1 0.236013 0.0521507 0.942547
15 1 0.0307178 0.242515 0.909197
289 2 0.244895 0.00125528 0.974335
17 1 0.198029 0.313511 0.0442865
18 1 0.104376 0.430898 0.0991807
19 1 0.0329734 0.255711 0.0915705
264 2 0.140071 0.327814 0.0428447
20 1 0.100473 0.474806 0.183581
265 2 0.0816151 0.47943 0.126797
21 1 0.103229 0.391097 0.302772
22 1 0.166378 0.455495 0.323967
23 1 0.236414 0.280445 0.304658
266 2 0.121777 0.449125 0.289346
267 2 0.13022 0.26378 0.346398
24 1 0.0029532 0.274807 0.42684
25 1 0.185679 0.423068 0.470916
268 2 0.242792 0.422415 0.448609
26 1 0.0472307 0.389417 0.506634
27 1 0.0618778 0.484814 0.516618
269 2 0.0883092 0.429292 0.513539
28 1 0.109388 0.409203 0.634584
29 1 0.146603 0.341796 0.687994
30 1 0.204932 0.467306 0.716089
270 2 0.12191 0.39562 0.692517
31 1 0.109917 0.467677 0.847307
32 1 0.00985805 0.32668 0.865945
33 1 0.00520063 0.412474 0.761222
34 1 0.117836 0.319252 0.98592
271 2 0.0306143 0.302185 0.919386
35 1 0.044495 0.745691 0.0803657
36 1 0.141047 0.646404 0.0181522
37 1 0.0942191 0.581596 0.0754455
272 2 0.0881881 0.637544 0.0472241
38 1 0.0799215 0.683376 0.350345
39 1 0.198411 0.746163 0.302495
40 1 0.197534 0.659105 0.26438
273 2 0.161103 0.702293 0.284636
41 1 0.0347535 0.644649 0.430347
274 2 0.0265164 0.678881 0.380271
42 1 0.0515103 0.607642 0.578851
43 1 0.201033 0.716393 0.588706
275 2 0.0219591 0.582486 0.532432
44 1 0.108721 0.700832 0.685589
45 1 0.16898 0.624458 0.685673
276 2 0.137028 0.660659 0.64951
46 1 0.0516316 0.542443 0.855427
47 1 0.170302 0.594705 0.868306
277 2 0.0957634 0.521289 0.822744
48 1 0.0166063 0.613392 0.978097
49 1 0.187689 0.693159 0.880568
278 2 0.202362 0.636249 0.901983
50 1 0.234121 0.95078 0.0815875
51 1 0.0842338 0.862938 0.00868141
279 2 0.0338183 0.804248 0.07673
52 1 0.245037 0.937642 0.173569
53 1 0.1009 0.949168 0.160521
55 1 0.0615805 0.80612 0.248083
280 2 0.215143 0.915419 0.126507
281 2 0.0512979 0.975956 0.178772
56 1 0.0109203 0.879037 0.277049
282 2 0.0294336 0.825712 0.295561
58 1 0.0935302 0.842665 0.390304
59 1 0.18152 0.967487 0.412598
60 1 0.096173 0.871061 0.483402
283 2 0.132302 0.856872 0.435584
57 1 0.185662 0.774631 0.509319
61 1 0.0529071 0.94785 0.609481
284 2 0.0213416 0.900127 0.594611
285 2 0.231172 0.751534 0.544453
62 1 0.169612 0.963121 0.694739
63 1 0.0353123 0.864378 0.639459
286 2 0.0665485 0.7989 0.720422
64 1 0.22271 0.828153 0.839709
65 1 0.110206 0.809781 0.762738
66 1 0.0173302 0.791137 0.751969
287 2 0.170059 0.804389 0.854053
67 1 0.0265084 0.954958 0.914742
68 1 0.14576 0.935984 0.983264
69 1 0.146048 0.842432 0.897627
288 2 0.103923 0.897088 0.963858
70 1 0.328425 0.180561 0.103349
71 1 0.42069 0.0921881 0.0358981
290 2 0.34643 0.125089 0.112583
72 1 0.364179 0.127172 0.170831
73 1 0.336341 0.0356155 0.268073
74 1 0.386173 0.183846 0.307162
75 1 0.45754 0.126979 0.274768
292 2 0.396854 0.130538 0.281525
76 1 0.338341 0.1523 0.481513
293 2 0.393923 0.128288 0.472019
77 1 0.407619 0.0282347 0.502476
78 1 0.429191 0.154169 0.512607
294 2 0.461824 0.232221 0.593062
79 1 0.376514 0.209333 0.668508
80 1 0.339513 0.155182 0.739306
295 2 0.329932 0.205001 0.707696
81 1 0.391446 0.0632266 0.856589
82 1 0.356373 0.0114548 0.785931
83 1 0.475796 0.0504199 0.757603
296 2 0.379768 0.06585 0.798977
147 1 0.498084 0.131005 0.995274
297 2 0.468997 0.0775118 0.999623
85 1 0.460494 0.49163 0.115638
86 1 0.34579 0.360142 0.126512
87 1 0.465146 0.300953 0.0248165
88 1 0.306956 0.303186 0.189677
298 2 0.462425 0.450338 0.159957
299 2 0.315755 0.311328 0.12898
89 1 0.320581 0.315804 0.333965
90 1 0.438929 0.465497 0.254394
300 2 0.295405 0.277885 0.291554
301 2 0.425925 0.484025 0.311099
91 1 0.360422 0.390829 0.482503
92 1 0.444862 0.38815 0.437875
93 1 0.256543 0.480274 0.438202
302 2 0.41881 0.384113 0.493787
94 1 0.449555 0.270185 0.547794
95 1 0.413432 0.476749 0.582115
112 1 0.357947 0.492664 0.650971
96 1 0.33852 0.254248 0.829494
97 1 0.281277 0.485324 0.795791
84 1 0.372347 0.257874 0.919456
98 1 0.281728 0.453521 0.93634
99 1 0.298234 0.366368 0.89108
303 2 0.2659 0.420947 0.88718
304 2 0.324287 0.271102 0.886348
305 2 0.489144 0.27062 0.981888
100 1 0.363654 0.550191 0.0219083
118 1 0.481081 0.604332 0.00534455
306 2 0.304606 0.546962 0.0228929
307 2 0.481446 0.546272 0.0185609
102 1 0.305679 0.640162 0.189562
103 1 0.299028 0.553336 0.160698
308 2 0.303444 0.586898 0.210867
104 1 0.501136 0.564886 0.319197
105 1 0.377102 0.517041 0.301607
106 1 0.397913 0.667207 0.433287
309 2 0.443001 0.707971 0.422245
310 2 0.317214 0.609857 0.488894
108 1 0.336164 0.583598 0.540657
109 1 0.470989 0.750467 0.524932
110 1 0.277254 0.655665 0.504746
174 1 0.498655 0.719667 0.612157
311 2 0.392166 0.521235 0.616283
10 1 0.277968 0.550725 0.705718
111 1 0.471542 0.606557 0.658669
113 1 0.440937 0.656853 0.732264
312 2 0.486714 0.650452 0.696731
313 2 0.258153 0.505046 0.735168
114 1 0.327803 0.660205 0.856605
314 2 0.38126 0.674328 0.835595
115 1 0.412413 0.698567 0.883763
116 1 0.492251 0.517595 0.968075
117 1 0.285209 0.586702 0.982131
315 2 0.484582 0.710305 0.961666
101 1 0.472623 0.7521 0.0026928
119 1 0.491324 0.858732 0.0974672
316 2 0.471638 0.803823 0.105723
120 1 0.287194 0.809097 0.142711
121 1 0.378652 0.781725 0.144375
317 2 0.323908 0.769147 0.167779
122 1 0.373781 0.829848 0.261939
123 1 0.319741 0.946671 0.300154
124 1 0.441609 0.872913 0.31737
291 2 0.292152 0.993572 0.274376
318 2 0.384705 0.853828 0.317507
107 1 0.419195 0.74937 0.38748
125 1 0.389463 0.939789 0.476121
126 1 0.309501 0.911904 0.588744
127 1 0.251959 0.839935 0.603766
319 2 0.41412 0.970087 0.520736
320 2 0.497022 0.767326 0.577151
321 2 0.265874 0.892579 0.624904
128 1 0.30507 0.893361 0.728865
129 1 0.492915 0.820445 0.712489
130 1 0.382937 0.873626 0.781633
322 2 0.327535 0.896075 0.78563
131 1 0.281903 0.970799 0.942561
323 2 0.693423 0.0028779 0.00756932
133 1 0.594156 0.171143 0.201214
134 1 0.537736 0.243724 0.183105
136 1 0.632668 0.0351199 0.2387
198 1 0.744535 0.0782051 0.166864
324 2 0.549609 0.201202 0.224633
325 2 0.714392 0.119626 0.204622
138 1 0.65492 0.0483618 0.375469
326 2 0.665944 0.242713 0.374513
327 2 0.57938 0.0138418 0.252925
137 1 0.717044 0.0495185 0.448078
139 1 0.664557 0.18249 0.385164
328 2 0.661575 0.0654768 0.432269
140 1 0.641167 0.0750477 0.560036
141 1 0.569455 0.134978 0.55939
329 2 0.612021 0.114095 0.595964
142 1 0.549636 0.0581416 0.693865
205 1 0.752172 0.0241745 0.720187
330 2 0.528585 0.0268184 0.743312
143 1 0.604037 0.0781958 0.82932
144 1 0.66299 0.216721 0.842126
145 1 0.702326 0.085621 0.818198
331 2 0.653422 0.102825 0.856552
146 1 0.68843 0.0425952 0.962205
148 1 0.630448 0.331786 0.0571294
332 2 0.601166 0.337278 0.111537
149 1 0.646017 0.355629 0.151495
150 1 0.512928 0.420001 0.14758
151 1 0.695966 0.475757 0.204102
333 2 0.705668 0.427029 0.237754
152 1 0.67359 0.436709 0.286821
153 1 0.629649 0.250555 0.326127
154 1 0.66736 0.320363 0.478772
155 1 0.660716 0.416986 0.479032
334 2 0.647169 0.493377 0.394973
159 1 0.516726 0.251863 0.614401
335 2 0.670706 0.370856 0.516804
156 1 0.634635 0.285974 0.717716
157 1 0.580692 0.42091 0.705396
158 1 0.648086 0.33027 0.629541
160 1 0.505643 0.474951 0.686144
336 2 0.606183 0.311613 0.66997
337 2 0.554356 0.475271 0.718207
161 1 0.51857 0.443491 0.836534
162 1 0.672764 0.310462 0.855655
338 2 0.672213 0.269535 0.813599
163 1 0.516491 0.312364 0.949489
164 1 0.6992 0.414512 0.95567
165 1 0.586015 0.475849 0.889639
339 2 0.699339 0.352774 0.964667
340 2 0.531922 0.449596 0.892261
166 1 0.744705 0.589076 0.112841
341 2 0.688696 0.569664 0.103097
167 1 0.574117 0.640436 0.224267
168 1 0.622803 0.710155 0.195684
169 1 0.651018 0.612421 0.125559
342 2 0.582874 0.670873 0.174814
170 1 0.709538 0.712302 0.321913
173 1 0.508495 0.646315 0.371
343 2 0.542147 0.603128 0.339238
171 1 0.600672 0.535151 0.392086
172 1 0.696188 0.528089 0.396906
175 1 0.732565 0.61633 0.73137
176 1 0.648131 0.661236 0.812222
177 1 0.607121 0.589839 0.761535
344 2 0.656002 0.602702 0.791769
178 1 0.68712 0.565362 0.89734
179 1 0.530991 0.729782 0.931033
180 1 0.688943 0.554293 0.993198
345 2 0.697328 0.528449 0.940302
132 1 0.503501 0.998511 0.0628037
181 1 0.635946 0.98866 0.0234485
346 2 0.537299 0.955163 0.0875298
182 1 0.513572 0.774063 0.134658
183 1 0.542251 0.969279 0.146191
184 1 0.726975 0.791557 0.273053
185 1 0.586913 0.968324 0.288787
186 1 0.60409 0.824651 0.343849
347 2 0.682301 0.754818 0.291528
348 2 0.574661 0.871735 0.361784
187 1 0.590599 0.878801 0.420866
188 1 0.67099 0.948063 0.605897
189 1 0.578734 0.842813 0.553346
190 1 0.540914 0.922924 0.526241
349 2 0.59432 0.896863 0.531229
191 1 0.51557 0.90919 0.738722
350 2 0.725974 0.959808 0.633313
192 1 0.601142 0.792774 0.822646
351 2 0.625412 0.755683 0.862666
352 2 0.507481 0.851883 0.75934
193 1 0.718576 0.905113 0.963902
194 1 0.665256 0.788503 0.893804
353 2 0.743181 0.851837 0.949462
195 1 0.972127 0.111221 0.0713421
196 1 0.897067 0.049308 0.0986905
209 1 0.949655 0.247672 0.0479547
354 2 0.955196 0.0541321 0.06856
355 2 0.983153 0.224807 0.0936799
135 1 0.758465 0.144431 0.232552
197 1 0.916626 0.208556 0.187018
356 2 0.888466 0.189375 0.23838
357 2 0.806192 0.00374682 0.131192
199 1 0.925338 0.150452 0.260698
358 2 0.810634 0.0332693 0.492567
200 1 0.927773 0.101319 0.533572
201 1 0.969975 0.186591 0.550172
202 1 0.791162 0.0177399 0.54537
359 2 0.968253 0.12981 0.569431
203 1 0.933803 0.130348 0.674916
204 1 0.880131 0.191522 0.725686
360 2 0.911933 0.13824 0.730519
206 1 0.827809 0.0789075 0.749125
361 2 0.783556 0.0418362 0.768829
207 1 0.964498 0.0123294 0.962012
208 1 0.897666 0.376127 0.0346967
210 1 0.982474 0.480659 0.110916
362 2 0.920603 0.465718 0.102587
211 1 0.903086 0.450567 0.159399
212 1 0.858184 0.379092 0.317335
213 1 0.812486 0.444937 0.268737
215 1 0.863751 0.252443 0.320137
363 2 0.843269 0.295552 0.359757
364 2 0.867481 0.433032 0.287061
214 1 0.789207 0.277613 0.375435
216 1 0.931825 0.310373 0.482391
365 2 0.993534 0.299088 0.479805
217 1 0.837119 0.360508 0.616399
218 1 0.846404 0.493634 0.578007
219 1 0.776214 0.376214 0.544353
366 2 0.834791 0.383093 0.560115
220 1 0.863797 0.317587 0.747586
367 2 0.823861 0.283036 0.715971
221 1 0.775861 0.27567 0.753346
222 1 0.926997 0.436534 0.813454
368 2 0.957787 0.389363 0.790382
223 1 0.928596 0.328115 0.960042
224 1 0.756472 0.34083 0.977626
369 2 0.880025 0.337593 0.991716
225 1 0.856122 0.712348 0.0675765
226 1 0.877007 0.560879 0.103358
370 2 0.860819 0.618006 0.122385
227 1 0.887373 0.620625 0.177573
228 1 0.970299 0.619479 0.311637
229 1 0.937965 0.531036 0.284379
230 1 0.839644 0.586568 0.367497
247 1 0.935682 0.750214 0.363139
371 2 0.929122 0.58995 0.277193
231 1 0.808364 0.586486 0.457192
232 1 0.8483 0.723997 0.389597
372 2 0.795726 0.606937 0.403598
233 1 0.823543 0.577526 0.621349
234 1 0.962001 0.57324 0.551622
235 1 0.810985 0.734012 0.616389
373 2 0.849702 0.552728 0.572239
236 1 0.82316 0.597348 0.746904
374 2 0.785813 0.623337 0.705087
237 1 0.87237 0.727428 0.772243
375 2 0.872311 0.530867 0.855487
238 1 0.983229 0.674197 0.91252
239 1 0.828074 0.521692 0.895811
240 1 0.910799 0.565519 0.88431
376 2 0.978846 0.618102 0.929841
241 1 0.973079 0.811173 0.0847361
242 1 0.809965 0.791233 0.0291537
243 1 0.780144 0.984651 0.0826911
377 2 0.849784 0.772267 0.07152
244 1 0.829794 0.813082 0.174834
245 1 0.809656 0.957604 0.169082
378 2 0.81324 0.845573 0.225408
246 1 0.854444 0.832315 0.268676
379 2 0.878602 0.770822 0.370359
248 1 0.886188 0.838149 0.442601
249 1 0.829034 0.980339 0.47228
380 2 0.87057 0.873537 0.492173
250 1 0.813689 0.806534 0.552266
251 1 0.921434 0.891973 0.519947
381 2 0.777719 0.77695 0.593097
252 1 0.752824 0.906559 0.629113
253 1 0.824323 0.945967 0.798979
254 1 0.892451 0.813389 0.805303
255 1 0.900282 0.944877 0.858156
382 2 0.856652 0.908115 0.834793
383 2 0.913586 0.755709 0.800974
256 1 0.780194 0.86581 0.900577
384 2 0.977281 0.992203 0.905877
ITEM: TIMESTEP
20
ITEM: NUMBER OF ATOMS
384
ITEM: BOX BOUNDS pp pp pp
3.1690796879514887e-04 1.6209677512031210e+01
3.1690796879514887e-04 1.6209677512031210e+01
3.1690796879514887e-04 1.6209677512031210e+01
ITEM: ATOMS id type xs ys zs
54 1 0.0231369 -0.00105772 0.130073
1 1 0.110854 0.215663 0.315716
2 1 0.057027 0.0719689 0.349921
3 1 0.223223 0.020185 0.351371
4 1 0.0379547 0.0484296 0.256104
257 2 0.0238075 0.0868849 0.302232
5 1 0.20469 0.122211 0.457138
6 1 0.155767 0.238585 0.394898
258 2 0.215628 0.178952 0.472309
259 2 0.18653 0.0245802 0.397906
7 1 0.193607 0.193197 0.529681
8 1 0.145406 0.149926 0.676223
9 1 0.21911 0.205515 0.67548
260 2 0.140613 0.012194 0.710085
261 2 0.158938 0.204533 0.657604
11 1 0.0118812 0.151267 0.806395
14 1 0.0193174 0.0880746 0.871551
16 1 0.156527 0.147957 0.866266
262 2 0.0378005 0.143243 0.860119
263 2 0.216251 0.145334 0.87501
12 1 0.243521 0.197773 0.895789
13 1 0.232193 0.0536769 0.942748
15 1 0.0301959 0.241157 0.905571
289 2 0.244929 0.00141154 0.974247
17 1 0.198494 0.315015 0.0469008
18 1 0.106087 0.430035 0.0993605
19 1 0.0369123 0.255168 0.0911714
264 2 0.139847 0.327897 0.0432139
20 1 0.101023 0.472872 0.185456
265 2 0.0820057 0.479714 0.12638
21 1 0.10296 0.394284 0.300946
22 1 0.172119 0.458483 0.325901
23 1 0.235715 0.275635 0.306622
266 2 0.121434 0.448562 0.289474
267 2 0.129998 0.26357 0.346358
24 1 0.00351247 0.278357 0.424022
25 1 0.18606 0.420893 0.471533
268 2 0.243026 0.42274 0.448226
26 1 0.0461635 0.38349 0.497079
27 1 0.0589365 0.482166 0.514999
269 2 0.089051 0.429832 0.5145
28 1 0.108207 0.406907 0.633014
29 1 0.140292 0.336375 0.687858
30 1 0.205235 0.469644 0.714035
270 2 0.123106 0.39659 0.69244
31 1 0.108965 0.46908 0.848505
32 1 0.0121584 0.328076 0.868364
33 1 0.00302453 0.411828 0.758165
34 1 0.119005 0.320825 0.987987
271 2 0.0304639 0.302038 0.918892
35 1 0.0456983 0.744359 0.0779351
36 1 0.136743 0.647909 0.0141299
37 1 0.0923426 0.587523 0.0802797
272 2 0.0888308 0.636685 0.0477675
38 1 0.0777697 0.68679 0.349517
39 1 0.197755 0.745832 0.302801
40 1 0.19584 0.656808 0.264242
273 2 0.161574 0.702291 0.284532
41 1 0.0299408 0.645668 0.430757
274 2 0.0268754 0.678294 0.380703
42 1 0.0508854 0.608693 0.578148
43 1 0.196101 0.723655 0.583517
275 2 0.0214793 0.582469 0.532715
44 1 0.107761 0.707054 0.680371
45 1 0.161096 0.62516 0.690728
276 2 0.136975 0.66036 0.649681
46 1 0.0483495 0.542154 0.858297
47 1 0.169004 0.598681 0.871023
277 2 0.0959532 0.521475 0.82272
48 1 0.0164229 0.621141 0.979076
49 1 0.187024 0.691467 0.884529
278 2 0.202729 0.636512 0.901639
50 1 0.233994 0.952885 0.0823455
51 1 0.0798741 0.864845 0.0129213
279 2 0.0335995 0.804176 0.0773436
52 1 0.242142 0.942838 0.175289
53 1 0.103412 0.952154 0.156396
55 1 0.0611912 0.804059 0.249869
280 2 0.215601 0.915249 0.126745
281 2 0.0512133 0.975618 0.179422
56 1 0.0122501 0.880823 0.274067
282 2 0.0294348 0.826261 0.295226
58 1 0.0947454 0.842533 0.390636
59 1 0.177645 0.964834 0.413088
60 1 0.0965194 0.873023 0.481297
283 2 0.132052 0.856667 0.436086
57 1 0.191199 0.775325 0.507066
61 1 0.0515361 0.952332 0.61377
284 2 0.0217791 0.900532 0.593976
285 2 0.230768 0.750896 0.544526
62 1 0.173647 0.964209 0.691732
63 1 0.0359487 0.860953 0.641265
286 2 0.0669525 0.7982 0.721148
64 1 0.223141 0.832509 0.839817
65 1 0.109544 0.816014 0.760322
66 1 0.0100675 0.785981 0.746006
287 2 0.170552 0.803595 0.853462
67 1 0.0241167 0.95673 0.918971
68 1 0.147068 0.935734 0.981483
69 1 0.148098 0.84279 0.895539
288 2 0.103869 0.897286 0.963593
70 1 0.330056 0.183992 0.105773
71 1 0.42192 0.0946456 0.0350133
290 2 0.346424 0.124873 0.112354
72 1 0.36472 0.131678 0.170095
73 1 0.331702 0.0391413 0.273564
74 1 0.380554 0.181416 0.306267
75 1 0.456557 0.131309 0.274721
292 2 0.397372 0.129931 0.281028
76 1 0.339296 0.150701 0.482288
293 2 0.394004 0.128249 0.471757
77 1 0.403154 0.0281659 0.503765
78 1 0.424597 0.15685 0.516497
294 2 0.462567 0.232458 0.592635
79 1 0.375813 0.208515 0.669615
80 1 0.338706 0.151224 0.735988
295 2 0.32992 0.205672 0.708252
81 1 0.389662 0.0662187 0.85941
82 1 0.351707 0.0115489 0.788744
83 1 0.473002 0.0502673 0.756099
296 2 0.379844 0.0655094 0.799077
147 1 0.498276 0.129033 0.995188
297 2 0.468299 0.0778147 0.999562
85 1 0.463739 0.493909 0.116496
86 1 0.350544 0.363574 0.129076
87 1 0.466768 0.301233 0.030633
88 1 0.309851 0.304444 0.188384