ITEM: TIMESTEP
0
ITEM: NUMBER OF ATOMS
324
ITEM: BOX BOUNDS pp pp pp
-0.05602716407405191 16.266021584074068
-0.05602716407405191 16.266021584074068
-0.05602716407405191 16.266021584074068
ITEM: ATOMS id type xs ys zs
257.0 2.0 0.0975772 0.0987289 0.318846
259.0 2.0 0.204995 0.00775473 0.400474
258.0 2.0 0.175148 0.174749 0.493664
260.0 2.0 0.0705182 0.0778367 0.640513
261.0 2.0 0.228441 0.155392 0.663437
262.0 2.0 0.0429217 0.12389 0.824908
263.0 2.0 0.206523 0.0795816 0.876844
264.0 2.0 0.0837912 0.308115 0.0635219
265.0 2.0 0.109351 0.463339 0.111837
266.0 2.0 0.0606955 0.430328 0.276299
267.0 2.0 0.13942 0.26353 0.324117
268.0 2.0 0.240828 0.448754 0.385376
269.0 2.0 0.0937335 0.411863 0.512121
270.0 2.0 0.155046 0.356729 0.666858
271.0 2.0 0.0141144 0.269494 0.918944
303.0 2.0 0.236493 0.419773 0.905518
272.0 2.0 0.0828949 0.635361 0.0874481
273.0 2.0 0.164489 0.710778 0.314403
275.0 2.0 0.00782123 0.550611 0.506075
285.0 2.0 0.160914 0.710253 0.532357
276.0 2.0 0.123597 0.567865 0.652283
286.0 2.0 0.0750862 0.748363 0.687027
278.0 2.0 0.207077 0.651984 0.929739
279.0 2.0 0.0424574 0.81332 0.0831964
281.0 2.0 0.106109 0.989376 0.191438
282.0 2.0 0.0627207 0.848362 0.281086
283.0 2.0 0.160587 0.857016 0.445497
284.0 2.0 0.102903 0.912615 0.586685
287.0 2.0 0.192945 0.785277 0.810928
288.0 2.0 0.111365 0.887691 0.948414
292.0 2.0 0.402621 0.183976 0.224128
291.0 2.0 0.343972 0.0499167 0.284597
293.0 2.0 0.366594 0.129001 0.532662
296.0 2.0 0.39165 0.0720012 0.810726
297.0 2.0 0.441583 0.111057 0.974323
299.0 2.0 0.262375 0.325516 0.0783723
298.0 2.0 0.449579 0.393132 0.104752
301.0 2.0 0.368008 0.470013 0.247868
300.0 2.0 0.292053 0.307535 0.253917
302.0 2.0 0.386909 0.378029 0.471497
294.0 2.0 0.448971 0.292231 0.634325
304.0 2.0 0.323333 0.277357 0.900016
305.0 2.0 0.462007 0.272892 0.982821
307.0 2.0 0.461547 0.56196 0.00511932
306.0 2.0 0.301491 0.528369 0.0280771
308.0 2.0 0.297393 0.622208 0.20086
343.0 2.0 0.475084 0.587407 0.316757
309.0 2.0 0.431395 0.697284 0.447758
310.0 2.0 0.303755 0.603311 0.500673
314.0 2.0 0.38194 0.653556 0.819549
315.0 2.0 0.490171 0.709755 0.966424
317.0 2.0 0.365608 0.781577 0.200523
280.0 2.0 0.285837 0.945284 0.152145
318.0 2.0 0.414283 0.849473 0.364916
319.0 2.0 0.412004 0.962494 0.507311
322.0 2.0 0.335516 0.893293 0.800305
324.0 2.0 0.593288 0.207298 0.240265
327.0 2.0 0.564582 0.0172671 0.265348
325.0 2.0 0.743533 0.0842714 0.259173
328.0 2.0 0.644117 0.0824187 0.440759
326.0 2.0 0.679834 0.256127 0.398777
329.0 2.0 0.534223 0.124697 0.597149
331.0 2.0 0.690588 0.0735583 0.857675
338.0 2.0 0.726075 0.244997 0.816935
333.0 2.0 0.685642 0.477385 0.198018
335.0 2.0 0.63872 0.40747 0.507574
336.0 2.0 0.610375 0.337209 0.65758
337.0 2.0 0.513828 0.469331 0.763571
340.0 2.0 0.543839 0.403634 0.912526
339.0 2.0 0.747505 0.334524 0.978268
341.0 2.0 0.693454 0.608033 0.0932536
312.0 2.0 0.505545 0.636119 0.690169
345.0 2.0 0.70318 0.505895 0.921593
346.0 2.0 0.504334 0.991577 0.101218
323.0 2.0 0.674542 0.964247 0.00339463
347.0 2.0 0.70762 0.765038 0.309449
348.0 2.0 0.579126 0.8621 0.34818
320.0 2.0 0.510121 0.777836 0.583273
349.0 2.0 0.57985 0.919115 0.508205
350.0 2.0 0.694993 0.936351 0.622842
352.0 2.0 0.50984 0.893415 0.750064
351.0 2.0 0.593556 0.756347 0.841386
353.0 2.0 0.743457 0.818054 0.939714
354.0 2.0 0.962253 0.0383464 0.0888458
355.0 2.0 0.975611 0.194361 0.168517
356.0 2.0 0.90607 0.128179 0.325349
358.0 2.0 0.790205 0.0287151 0.506587
359.0 2.0 0.9475 0.129049 0.501672
361.0 2.0 0.801695 0.00280971 0.728802
360.0 2.0 0.889912 0.17025 0.66747
384.0 2.0 0.993047 0.00449631 0.928454
369.0 2.0 0.896215 0.290682 0.0388208
362.0 2.0 0.935363 0.44784 0.0836302
364.0 2.0 0.851501 0.401854 0.230994
363.0 2.0 0.832358 0.290116 0.354155
365.0 2.0 0.976952 0.310579 0.455439
366.0 2.0 0.834659 0.4062 0.54472
371.0 2.0 0.855505 0.562337 0.288811
274.0 2.0 0.99443 0.651822 0.343894
372.0 2.0 0.798788 0.662149 0.412115
373.0 2.0 0.846612 0.570403 0.550412
374.0 2.0 0.80638 0.627873 0.712706
375.0 2.0 0.855947 0.549973 0.853112
376.0 2.0 0.935863 0.651171 0.954662
357.0 2.0 0.794956 0.998958 0.127631
378.0 2.0 0.81862 0.856339 0.220601
381.0 2.0 0.782574 0.802091 0.620172
383.0 2.0 0.952723 0.762529 0.790734
382.0 2.0 0.873477 0.901539 0.858066
19.0 1.0 0.0323559 0.209425 0.158912
54.0 1.0 0.061491 0.99441145 0.150702
1.0 1.0 0.121564 0.207903 0.3126
2.0 1.0 0.127995 0.068852 0.361985
4.0 1.0 0.107127 0.0617503 0.273102
3.0 1.0 0.261432 0.0110545 0.379221
5.0 1.0 0.177653 0.115468 0.489128
7.0 1.0 0.195106 0.17269 0.549657
62.0 1.0 0.278781 0.03251990000000004 0.28300400000000014
8.0 1.0 0.177385 0.122221 0.679024
61.0 1.0 0.39392225000000036 0.00593782499999998 0.3030038999999996
9.0 1.0 0.213949 0.206108 0.69763
11.0 1.0 0.0152662 0.116718 0.77371
14.0 1.0 0.0270906 0.0782839 0.860707
16.0 1.0 0.153703 0.0998309 0.858825
15.0 1.0 0.0165126 0.216815 0.886608
12.0 1.0 0.215412 0.120252 0.923773
17.0 1.0 0.144305 0.303657 0.0577955
18.0 1.0 0.0907678 0.404626 0.099421
34.0 1.0 0.0658092 0.303002 0.00615355
20.0 1.0 0.107964 0.460384 0.17386
21.0 1.0 0.0772277 0.376312 0.276331
22.0 1.0 0.106019 0.453829 0.307333
23.0 1.0 0.255372 0.283216 0.292939
6.0 1.0 0.154235 0.253868 0.382149
25.0 1.0 0.198754 0.428135 0.42621
28.0 1.0 0.134812 0.379047 0.612697
27.0 1.0 0.0609541 0.461019 0.51464
26.0 1.0 0.0580838 0.368591 0.48867
29.0 1.0 0.136909 0.30148 0.668608
97.0 1.0 0.23852 0.437103 0.852245
36.0 1.0 0.121216 0.64405 0.0438824
37.0 1.0 0.0891885 0.574856 0.0978712
38.0 1.0 0.0505001 0.669032 0.3349
39.0 1.0 0.201292 0.720754 0.360141
40.0 1.0 0.204103 0.684421 0.278064
41.0 1.0 0.00471685 0.621549 0.395351
42.0 1.0 0.0483754 0.581199 0.539527
43.0 1.0 0.138198 0.731975 0.582512
44.0 1.0 0.101469 0.626067 0.658635
45.0 1.0 0.0800719 0.533862 0.669962
49.0 1.0 0.204136 0.703591 0.900229
47.0 1.0 0.164473 0.615211 0.90822
35.0 1.0 0.0746997 0.767445 0.0980824
53.0 1.0 0.156935 0.977016 0.160036
55.0 1.0 0.104113 0.806921 0.27202
56.0 1.0 0.0743957 0.897282 0.247823
58.0 1.0 0.121184 0.858924 0.399895
59.0 1.0 0.197677 0.950825 0.422697
57.0 1.0 0.172177 0.764052 0.501319
60.0 1.0 0.137037 0.897702 0.532374
63.0 1.0 0.078048 0.860608 0.60796
65.0 1.0 0.115027 0.765768 0.726737
66.0 1.0 0.0159938 0.752946 0.713399
64.0 1.0 0.242022 0.816945 0.821296
69.0 1.0 0.151605 0.814188 0.844961
67.0 1.0 0.0358949 0.9633 0.939775
68.0 1.0 0.166704 0.900326 0.968245
51.0 1.0 0.0819443 0.857885 0.993778
71.0 1.0 0.392086 0.134068 0.00203847
132.0 1.0 0.475439 0.0348184 0.0643257
75.0 1.0 0.461961 0.182012 0.230509
74.0 1.0 0.382417 0.238712 0.241935
73.0 1.0 0.365728 0.105556 0.270184
123.0 1.0 0.387407 0.0116742 0.300603
76.0 1.0 0.327757 0.151059 0.493485
78.0 1.0 0.333364 0.130766 0.582945
141.0 1.0 0.489686 0.157384 0.574575
77.0 1.0 0.394144 0.0211084 0.506348
81.0 1.0 0.39838 0.0872334 0.869674
82.0 1.0 0.350315 0.0301879 0.811597
147.0 1.0 0.47905 0.158187 0.966528
85.0 1.0 0.463106 0.448065 0.082641
86.0 1.0 0.294456 0.366911 0.049808
87.0 1.0 0.455662 0.30861 0.0310708
88.0 1.0 0.278683 0.334231 0.137446
90.0 1.0 0.393748 0.442204 0.203153
89.0 1.0 0.297184 0.367199 0.271751
91.0 1.0 0.336128 0.410679 0.467547
92.0 1.0 0.398073 0.377305 0.412153
93.0 1.0 0.256969 0.506424 0.397707
94.0 1.0 0.436899 0.322145 0.583395
160.0 1.0 0.476456 0.497108 0.722777
96.0 1.0 0.361047 0.260441 0.849274
84.0 1.0 0.376213 0.274869 0.938602
99.0 1.0 0.310651 0.33811 0.902281
163.0 1.0 0.504018 0.311658 0.951041
98.0 1.0 0.25362 0.470358 0.93879
100.0 1.0 0.358958 0.547278 0.0149919
118.0 1.0 0.473642 0.619295 0.9934089
102.0 1.0 0.327214 0.671698 0.201417
103.0 1.0 0.279109 0.612755 0.14154
105.0 1.0 0.354032 0.520222 0.221206
104.0 1.0 0.442732 0.539606 0.309165
173.0 1.0 0.456521 0.620328 0.362325
106.0 1.0 0.383306 0.671318 0.472002
108.0 1.0 0.326395 0.566 0.540811
110.0 1.0 0.257221 0.633762 0.520065
109.0 1.0 0.48333 0.750902 0.538692
111.0 1.0 0.476902 0.620742 0.640416
113.0 1.0 0.462255 0.654345 0.730867
114.0 1.0 0.321925 0.645123 0.820971
116.0 1.0 0.483859 0.52717 0.960512
115.0 1.0 0.39667 0.682288 0.870264
117.0 1.0 0.266657 0.573146 0.012880000000000003
50.0 1.0 0.302627 0.95979 0.0961699
101.0 1.0 0.514073 0.740851 0.0121811
120.0 1.0 0.337902 0.829976 0.17972
121.0 1.0 0.422365 0.787963 0.178272
52.0 1.0 0.307433 0.986295 0.189044
122.0 1.0 0.396551 0.830171 0.309721
124.0 1.0 0.474534 0.83952 0.36436
125.0 1.0 0.390822 0.935271 0.456876
107.0 1.0 0.414362 0.746662 0.419755
129.0 1.0 0.479554 0.865987 0.703063
128.0 1.0 0.320953 0.882397 0.743293
130.0 1.0 0.394355 0.897107 0.797899
133.0 1.0 0.644372 0.178948 0.237791
183.0 1.0 0.526219 0.0185037 0.147871
134.0 1.0 0.593403 0.242077 0.193496
153.0 1.0 0.643547 0.261428 0.351025
136.0 1.0 0.625779 0.0374178 0.268176
137.0 1.0 0.693121 0.0509222 0.459691
139.0 1.0 0.676664 0.198937 0.419793
138.0 1.0 0.619683 0.0494316 0.397096
140.0 1.0 0.560953 0.0962502 0.553126
143.0 1.0 0.642677 0.0679932 0.819154
144.0 1.0 0.707522 0.18741 0.822868
145.0 1.0 0.735073 0.0445676 0.830324
146.0 1.0 0.685272 0.00772133 0.961318
150.0 1.0 0.507117 0.376552 0.121767
152.0 1.0 0.671875 0.488363 0.254598
154.0 1.0 0.636665 0.361504 0.470473
155.0 1.0 0.632973 0.457089 0.475641
158.0 1.0 0.63405 0.356815 0.606035
156.0 1.0 0.640148 0.289477 0.670468
157.0 1.0 0.540997 0.431125 0.729228
159.0 1.0 0.504683 0.297241 0.647998
161.0 1.0 0.525392 0.425092 0.860675
162.0 1.0 0.733018 0.260356 0.875897
164.0 1.0 0.757179 0.37908 0.942558
165.0 1.0 0.600538 0.416768 0.916285
169.0 1.0 0.664669 0.644978 0.130698
151.0 1.0 0.685275 0.529231 0.166527
170.0 1.0 0.740659 0.726269 0.346856
175.0 1.0 0.748656 0.615289 0.718614
174.0 1.0 0.543525 0.736255 0.609392
178.0 1.0 0.678077 0.548166 0.887852
179.0 1.0 0.51963 0.727654 0.917872
180.0 1.0 0.700583 0.52774 0.976835
181.0 1.0 0.613268 0.968459 0.00282042
243.0 1.0 0.746145 0.988009 0.0908166
184.0 1.0 0.748143 0.796174 0.278941
185.0 1.0 0.572711 0.960663 0.286514
186.0 1.0 0.623468 0.823207 0.340978
187.0 1.0 0.586084 0.883112 0.405116
190.0 1.0 0.530028 0.95665 0.512603
188.0 1.0 0.657227 0.94307 0.579736
189.0 1.0 0.561959 0.869107 0.537828
252.0 1.0 0.704501 0.875562 0.619739
191.0 1.0 0.545701 0.933488 0.721613
205.0 1.0 0.761248 0.980381 0.688027
192.0 1.0 0.567306 0.792646 0.802207
194.0 1.0 0.645914 0.782665 0.858669
193.0 1.0 0.722498 0.866738 0.970105
195.0 1.0 0.965255 0.096497 0.108477
196.0 1.0 0.905531 0.0261548 0.0964304
198.0 1.0 0.773021 0.0566445 0.215551
209.0 1.0 0.941299 0.230591 0.134295
199.0 1.0 0.953481 0.110351 0.356355
215.0 1.0 0.86694 0.241508 0.34641
135.0 1.0 0.786647 0.106193 0.2954
197.0 1.0 0.928895 0.13133 0.269591
201.0 1.0 0.955566 0.187059 0.487308
200.0 1.0 0.890584 0.114026 0.493043
202.0 1.0 0.781009 0.00847695 0.563273
203.0 1.0 0.901488 0.154252 0.610049
204.0 1.0 0.871599 0.228349 0.668936
206.0 1.0 0.818743 0.0575389 0.720379
207.0 1.0 0.976431 0.0183067 0.98479
208.0 1.0 0.914754 0.348098 0.0471838
210.0 1.0 0.989342 0.465017 0.101031
224.0 1.0 0.800097 0.309732 0.99344592
211.0 1.0 0.904239 0.434993 0.136275
213.0 1.0 0.793906 0.418888 0.226134
212.0 1.0 0.847866 0.356842 0.272053
229.0 1.0 0.869313 0.49967 0.284305
214.0 1.0 0.777099 0.273517 0.371262
216.0 1.0 0.922785 0.325431 0.468578
24.0 1.0 0.977431 0.323269 0.395998
217.0 1.0 0.821344 0.390783 0.602938
219.0 1.0 0.783187 0.40631 0.515789
223.0 1.0 0.93547 0.272082 0.996388
32.0 1.0 0.999017 0.31057 0.880474
166.0 1.0 0.753171 0.604771 0.109805
228.0 1.0 0.909192 0.588524 0.297637
231.0 1.0 0.814092 0.631671 0.463265
230.0 1.0 0.822841 0.624226 0.371681
233.0 1.0 0.835257 0.583016 0.610523
234.0 1.0 0.951713 0.563996 0.525893
218.0 1.0 0.85566 0.508354 0.545245
236.0 1.0 0.828979 0.602107 0.763181
237.0 1.0 0.906057 0.732327 0.769818
238.0 1.0 0.957755 0.693028 0.914951
240.0 1.0 0.883069 0.582408 0.896917
48.0 1.0 0.97339 0.649192 0.0027800000000000047
239.0 1.0 0.805522 0.530233 0.87845
241.0 1.0 0.982629 0.801917 0.0924931
244.0 1.0 0.849612 0.8221 0.181335
245.0 1.0 0.803449 0.947277 0.160593
246.0 1.0 0.851264 0.87036 0.269238
249.0 1.0 0.83927 0.994942 0.497013
250.0 1.0 0.829621 0.835425 0.604747
235.0 1.0 0.795987 0.744505 0.633256
253.0 1.0 0.854496 0.942258 0.818871
254.0 1.0 0.934419 0.820494 0.800352
256.0 1.0 0.788697 0.844544 0.907056
255.0 1.0 0.916941 0.933076 0.885689
